+ 1 0 2 tcp 40 ------- 0 0.0 3.0 0 0
- 1 0 2 tcp 40 ------- 0 0.0 3.0 0 0
+ 1 1 2 tcp 40 ------- 0 1.0 3.1 0 1
- 1 1 2 tcp 40 ------- 0 1.0 3.1 0 1
r 1.010002 1 2 tcp 40 ------- 0 1.0 3.1 0 1
+ 1.010002 2 3 tcp 40 ------- 0 1.0 3.1 0 1
- 1.010002 2 3 tcp 40 ------- 0 1.0 3.1 0 1
r 1.010003 0 2 tcp 40 ------- 0 0.0 3.0 0 0
+ 1.010003 2 3 tcp 40 ------- 0 0.0 3.0 0 0
- 1.010034 2 3 tcp 40 ------- 0 0.0 3.0 0 0
r 1.020034 2 3 tcp 40 ------- 0 1.0 3.1 0 1
+ 1.020034 3 2 ack 40 ------- 0 3.1 1.0 0 2
- 1.020034 3 2 ack 40 ------- 0 3.1 1.0 0 2
r 1.020066 2 3 tcp 40 ------- 0 0.0 3.0 0 0
+ 1.020066 3 2 ack 40 ------- 0 3.0 0.0 0 3
- 1.020066 3 2 ack 40 ------- 0 3.0 0.0 0 3
r 1.030066 3 2 ack 40 ------- 0 3.1 1.0 0 2
+ 1.030066 2 1 ack 40 ------- 0 3.1 1.0 0 2
- 1.030066 2 1 ack 40 ------- 0 3.1 1.0 0 2
r 1.030098 3 2 ack 40 ------- 0 3.0 0.0 0 3
+ 1.030098 2 0 ack 40 ------- 0 3.0 0.0 0 3
- 1.030098 2 0 ack 40 ------- 0 3.0 0.0 0 3
r 1.040067 2 1 ack 40 ------- 0 3.1 1.0 0 2
+ 1.040067 1 2 tcp 1540 ------- 0 1.0 3.1 1 4
- 1.040067 1 2 tcp 1540 ------- 0 1.0 3.1 1 4
+ 1.040067 1 2 tcp 1540 ------- 0 1.0 3.1 2 5
r 1.040101 2 0 ack 40 ------- 0 3.0 0.0 0 3
+ 1.040101 0 2 tcp 1540 ------- 0 0.0 3.0 1 6
- 1.040101 0 2 tcp 1540 ------- 0 0.0 3.0 1 6
+ 1.040101 0 2 tcp 1540 ------- 0 0.0 3.0 2 7
- 1.040129 1 2 tcp 1540 ------- 0 1.0 3.1 2 5
- 1.040224 0 2 tcp 1540 ------- 0 0.0 3.0 2 7
r 1.050129 1 2 tcp 1540 ------- 0 1.0 3.1 1 4
+ 1.050129 2 3 tcp 1540 ------- 0 1.0 3.1 1 4
- 1.050129 2 3 tcp 1540 ------- 0 1.0 3.1 1 4
r 1.05019 1 2 tcp 1540 ------- 0 1.0 3.1 2 5
+ 1.05019 2 3 tcp 1540 ------- 0 1.0 3.1 2 5
r 1.050224 0 2 tcp 1540 ------- 0 0.0 3.0 1 6
+ 1.050224 2 3 tcp 1540 ------- 0 0.0 3.0 1 6
r 1.050347 0 2 tcp 1540 ------- 0 0.0 3.0 2 7
+ 1.050347 2 3 tcp 1540 ------- 0 0.0 3.0 2 7
- 1.051361 2 3 tcp 1540 ------- 0 1.0 3.1 2 5
- 1.052593 2 3 tcp 1540 ------- 0 0.0 3.0 1 6
- 1.053825 2 3 tcp 1540 ------- 0 0.0 3.0 2 7
r 1.061361 2 3 tcp 1540 ------- 0 1.0 3.1 1 4
+ 1.061361 3 2 ack 40 ------- 0 3.1 1.0 1 8
- 1.061361 3 2 ack 40 ------- 0 3.1 1.0 1 8
r 1.062593 2 3 tcp 1540 ------- 0 1.0 3.1 2 5
+ 1.062593 3 2 ack 40 ------- 0 3.1 1.0 2 9
- 1.062593 3 2 ack 40 ------- 0 3.1 1.0 2 9
r 1.063825 2 3 tcp 1540 ------- 0 0.0 3.0 1 6
+ 1.063825 3 2 ack 40 ------- 0 3.0 0.0 1 10
- 1.063825 3 2 ack 40 ------- 0 3.0 0.0 1 10
r 1.065057 2 3 tcp 1540 ------- 0 0.0 3.0 2 7
+ 1.065057 3 2 ack 40 ------- 0 3.0 0.0 2 11
- 1.065057 3 2 ack 40 ------- 0 3.0 0.0 2 11
r 1.071393 3 2 ack 40 ------- 0 3.1 1.0 1 8
+ 1.071393 2 1 ack 40 ------- 0 3.1 1.0 1 8
- 1.071393 2 1 ack 40 ------- 0 3.1 1.0 1 8
r 1.072625 3 2 ack 40 ------- 0 3.1 1.0 2 9
+ 1.072625 2 1 ack 40 ------- 0 3.1 1.0 2 9
- 1.072625 2 1 ack 40 ------- 0 3.1 1.0 2 9
r 1.073857 3 2 ack 40 ------- 0 3.0 0.0 1 10
+ 1.073857 2 0 ack 40 ------- 0 3.0 0.0 1 10
- 1.073857 2 0 ack 40 ------- 0 3.0 0.0 1 10
r 1.075089 3 2 ack 40 ------- 0 3.0 0.0 2 11
+ 1.075089 2 0 ack 40 ------- 0 3.0 0.0 2 11
- 1.075089 2 0 ack 40 ------- 0 3.0 0.0 2 11
r 1.081394 2 1 ack 40 ------- 0 3.1 1.0 1 8
+ 1.081394 1 2 tcp 1540 ------- 0 1.0 3.1 3 12
- 1.081394 1 2 tcp 1540 ------- 0 1.0 3.1 3 12
+ 1.081394 1 2 tcp 1540 ------- 0 1.0 3.1 4 13
- 1.081456 1 2 tcp 1540 ------- 0 1.0 3.1 4 13
r 1.082626 2 1 ack 40 ------- 0 3.1 1.0 2 9
+ 1.082626 1 2 tcp 1540 ------- 0 1.0 3.1 5 14
- 1.082626 1 2 tcp 1540 ------- 0 1.0 3.1 5 14
+ 1.082626 1 2 tcp 1540 ------- 0 1.0 3.1 6 15
- 1.082688 1 2 tcp 1540 ------- 0 1.0 3.1 6 15
r 1.08386 2 0 ack 40 ------- 0 3.0 0.0 1 10
+ 1.08386 0 2 tcp 1540 ------- 0 0.0 3.0 3 16
- 1.08386 0 2 tcp 1540 ------- 0 0.0 3.0 3 16
+ 1.08386 0 2 tcp 1540 ------- 0 0.0 3.0 4 17
- 1.083983 0 2 tcp 1540 ------- 0 0.0 3.0 4 17
r 1.085092 2 0 ack 40 ------- 0 3.0 0.0 2 11
+ 1.085092 0 2 tcp 1540 ------- 0 0.0 3.0 5 18
- 1.085092 0 2 tcp 1540 ------- 0 0.0 3.0 5 18
+ 1.085092 0 2 tcp 1540 ------- 0 0.0 3.0 6 19
- 1.085215 0 2 tcp 1540 ------- 0 0.0 3.0 6 19
r 1.091456 1 2 tcp 1540 ------- 0 1.0 3.1 3 12
+ 1.091456 2 3 tcp 1540 ------- 0 1.0 3.1 3 12
- 1.091456 2 3 tcp 1540 ------- 0 1.0 3.1 3 12
r 1.091518 1 2 tcp 1540 ------- 0 1.0 3.1 4 13
+ 1.091518 2 3 tcp 1540 ------- 0 1.0 3.1 4 13
r 1.092688 1 2 tcp 1540 ------- 0 1.0 3.1 5 14
+ 1.092688 2 3 tcp 1540 ------- 0 1.0 3.1 5 14
- 1.092688 2 3 tcp 1540 ------- 0 1.0 3.1 4 13
r 1.09275 1 2 tcp 1540 ------- 0 1.0 3.1 6 15
+ 1.09275 2 3 tcp 1540 ------- 0 1.0 3.1 6 15
- 1.09392 2 3 tcp 1540 ------- 0 1.0 3.1 5 14
r 1.093983 0 2 tcp 1540 ------- 0 0.0 3.0 3 16
+ 1.093983 2 3 tcp 1540 ------- 0 0.0 3.0 3 16
r 1.094106 0 2 tcp 1540 ------- 0 0.0 3.0 4 17
+ 1.094106 2 3 tcp 1540 ------- 0 0.0 3.0 4 17
- 1.095152 2 3 tcp 1540 ------- 0 1.0 3.1 6 15
r 1.095215 0 2 tcp 1540 ------- 0 0.0 3.0 5 18
+ 1.095215 2 3 tcp 1540 ------- 0 0.0 3.0 5 18
r 1.095338 0 2 tcp 1540 ------- 0 0.0 3.0 6 19
+ 1.095338 2 3 tcp 1540 ------- 0 0.0 3.0 6 19
- 1.096384 2 3 tcp 1540 ------- 0 0.0 3.0 3 16
- 1.097616 2 3 tcp 1540 ------- 0 0.0 3.0 4 17
- 1.098848 2 3 tcp 1540 ------- 0 0.0 3.0 5 18
- 1.10008 2 3 tcp 1540 ------- 0 0.0 3.0 6 19
r 1.102688 2 3 tcp 1540 ------- 0 1.0 3.1 3 12
+ 1.102688 3 2 ack 40 ------- 0 3.1 1.0 3 20
- 1.102688 3 2 ack 40 ------- 0 3.1 1.0 3 20
r 1.10392 2 3 tcp 1540 ------- 0 1.0 3.1 4 13
+ 1.10392 3 2 ack 40 ------- 0 3.1 1.0 4 21
- 1.10392 3 2 ack 40 ------- 0 3.1 1.0 4 21
r 1.105152 2 3 tcp 1540 ------- 0 1.0 3.1 5 14
+ 1.105152 3 2 ack 40 ------- 0 3.1 1.0 5 22
- 1.105152 3 2 ack 40 ------- 0 3.1 1.0 5 22
r 1.106384 2 3 tcp 1540 ------- 0 1.0 3.1 6 15
+ 1.106384 3 2 ack 40 ------- 0 3.1 1.0 6 23
- 1.106384 3 2 ack 40 ------- 0 3.1 1.0 6 23
r 1.107616 2 3 tcp 1540 ------- 0 0.0 3.0 3 16
+ 1.107616 3 2 ack 40 ------- 0 3.0 0.0 3 24
- 1.107616 3 2 ack 40 ------- 0 3.0 0.0 3 24
r 1.108848 2 3 tcp 1540 ------- 0 0.0 3.0 4 17
+ 1.108848 3 2 ack 40 ------- 0 3.0 0.0 4 25
- 1.108848 3 2 ack 40 ------- 0 3.0 0.0 4 25
r 1.11008 2 3 tcp 1540 ------- 0 0.0 3.0 5 18
+ 1.11008 3 2 ack 40 ------- 0 3.0 0.0 5 26
- 1.11008 3 2 ack 40 ------- 0 3.0 0.0 5 26
r 1.111312 2 3 tcp 1540 ------- 0 0.0 3.0 6 19
+ 1.111312 3 2 ack 40 ------- 0 3.0 0.0 6 27
- 1.111312 3 2 ack 40 ------- 0 3.0 0.0 6 27
r 1.11272 3 2 ack 40 ------- 0 3.1 1.0 3 20
+ 1.11272 2 1 ack 40 ------- 0 3.1 1.0 3 20
- 1.11272 2 1 ack 40 ------- 0 3.1 1.0 3 20
r 1.113952 3 2 ack 40 ------- 0 3.1 1.0 4 21
+ 1.113952 2 1 ack 40 ------- 0 3.1 1.0 4 21
- 1.113952 2 1 ack 40 ------- 0 3.1 1.0 4 21
r 1.115184 3 2 ack 40 ------- 0 3.1 1.0 5 22
+ 1.115184 2 1 ack 40 ------- 0 3.1 1.0 5 22
- 1.115184 2 1 ack 40 ------- 0 3.1 1.0 5 22
r 1.116416 3 2 ack 40 ------- 0 3.1 1.0 6 23
+ 1.116416 2 1 ack 40 ------- 0 3.1 1.0 6 23
- 1.116416 2 1 ack 40 ------- 0 3.1 1.0 6 23
r 1.117648 3 2 ack 40 ------- 0 3.0 0.0 3 24
+ 1.117648 2 0 ack 40 ------- 0 3.0 0.0 3 24
- 1.117648 2 0 ack 40 ------- 0 3.0 0.0 3 24
r 1.11888 3 2 ack 40 ------- 0 3.0 0.0 4 25
+ 1.11888 2 0 ack 40 ------- 0 3.0 0.0 4 25
- 1.11888 2 0 ack 40 ------- 0 3.0 0.0 4 25
r 1.120112 3 2 ack 40 ------- 0 3.0 0.0 5 26
+ 1.120112 2 0 ack 40 ------- 0 3.0 0.0 5 26
- 1.120112 2 0 ack 40 ------- 0 3.0 0.0 5 26
r 1.121344 3 2 ack 40 ------- 0 3.0 0.0 6 27
+ 1.121344 2 0 ack 40 ------- 0 3.0 0.0 6 27
- 1.121344 2 0 ack 40 ------- 0 3.0 0.0 6 27
r 1.122722 2 1 ack 40 ------- 0 3.1 1.0 3 20
+ 1.122722 1 2 tcp 1540 ------- 0 1.0 3.1 7 28
- 1.122722 1 2 tcp 1540 ------- 0 1.0 3.1 7 28
+ 1.122722 1 2 tcp 1540 ------- 0 1.0 3.1 8 29
- 1.122783 1 2 tcp 1540 ------- 0 1.0 3.1 8 29
r 1.123954 2 1 ack 40 ------- 0 3.1 1.0 4 21
+ 1.123954 1 2 tcp 1540 ------- 0 1.0 3.1 9 30
- 1.123954 1 2 tcp 1540 ------- 0 1.0 3.1 9 30
+ 1.123954 1 2 tcp 1540 ------- 0 1.0 3.1 10 31
- 1.124015 1 2 tcp 1540 ------- 0 1.0 3.1 10 31
r 1.125186 2 1 ack 40 ------- 0 3.1 1.0 5 22
+ 1.125186 1 2 tcp 1540 ------- 0 1.0 3.1 11 32
- 1.125186 1 2 tcp 1540 ------- 0 1.0 3.1 11 32
+ 1.125186 1 2 tcp 1540 ------- 0 1.0 3.1 12 33
- 1.125247 1 2 tcp 1540 ------- 0 1.0 3.1 12 33
r 1.126418 2 1 ack 40 ------- 0 3.1 1.0 6 23
+ 1.126418 1 2 tcp 1540 ------- 0 1.0 3.1 13 34
- 1.126418 1 2 tcp 1540 ------- 0 1.0 3.1 13 34
+ 1.126418 1 2 tcp 1540 ------- 0 1.0 3.1 14 35
- 1.126479 1 2 tcp 1540 ------- 0 1.0 3.1 14 35
r 1.127651 2 0 ack 40 ------- 0 3.0 0.0 3 24
+ 1.127651 0 2 tcp 1540 ------- 0 0.0 3.0 7 36
- 1.127651 0 2 tcp 1540 ------- 0 0.0 3.0 7 36
+ 1.127651 0 2 tcp 1540 ------- 0 0.0 3.0 8 37
- 1.127774 0 2 tcp 1540 ------- 0 0.0 3.0 8 37
r 1.128883 2 0 ack 40 ------- 0 3.0 0.0 4 25
+ 1.128883 0 2 tcp 1540 ------- 0 0.0 3.0 9 38
- 1.128883 0 2 tcp 1540 ------- 0 0.0 3.0 9 38
+ 1.128883 0 2 tcp 1540 ------- 0 0.0 3.0 10 39
- 1.129006 0 2 tcp 1540 ------- 0 0.0 3.0 10 39
r 1.130115 2 0 ack 40 ------- 0 3.0 0.0 5 26
+ 1.130115 0 2 tcp 1540 ------- 0 0.0 3.0 11 40
- 1.130115 0 2 tcp 1540 ------- 0 0.0 3.0 11 40
+ 1.130115 0 2 tcp 1540 ------- 0 0.0 3.0 12 41
- 1.130238 0 2 tcp 1540 ------- 0 0.0 3.0 12 41
r 1.131347 2 0 ack 40 ------- 0 3.0 0.0 6 27
+ 1.131347 0 2 tcp 1540 ------- 0 0.0 3.0 13 42
- 1.131347 0 2 tcp 1540 ------- 0 0.0 3.0 13 42
+ 1.131347 0 2 tcp 1540 ------- 0 0.0 3.0 14 43
- 1.13147 0 2 tcp 1540 ------- 0 0.0 3.0 14 43
r 1.132783 1 2 tcp 1540 ------- 0 1.0 3.1 7 28
+ 1.132783 2 3 tcp 1540 ------- 0 1.0 3.1 7 28
- 1.132783 2 3 tcp 1540 ------- 0 1.0 3.1 7 28
r 1.132845 1 2 tcp 1540 ------- 0 1.0 3.1 8 29
+ 1.132845 2 3 tcp 1540 ------- 0 1.0 3.1 8 29
r 1.134015 1 2 tcp 1540 ------- 0 1.0 3.1 9 30
+ 1.134015 2 3 tcp 1540 ------- 0 1.0 3.1 9 30
- 1.134015 2 3 tcp 1540 ------- 0 1.0 3.1 8 29
r 1.134077 1 2 tcp 1540 ------- 0 1.0 3.1 10 31
+ 1.134077 2 3 tcp 1540 ------- 0 1.0 3.1 10 31
r 1.135247 1 2 tcp 1540 ------- 0 1.0 3.1 11 32
+ 1.135247 2 3 tcp 1540 ------- 0 1.0 3.1 11 32
- 1.135247 2 3 tcp 1540 ------- 0 1.0 3.1 9 30
r 1.135309 1 2 tcp 1540 ------- 0 1.0 3.1 12 33
+ 1.135309 2 3 tcp 1540 ------- 0 1.0 3.1 12 33
r 1.136479 1 2 tcp 1540 ------- 0 1.0 3.1 13 34
+ 1.136479 2 3 tcp 1540 ------- 0 1.0 3.1 13 34
- 1.136479 2 3 tcp 1540 ------- 0 1.0 3.1 10 31
r 1.136541 1 2 tcp 1540 ------- 0 1.0 3.1 14 35
+ 1.136541 2 3 tcp 1540 ------- 0 1.0 3.1 14 35
- 1.137711 2 3 tcp 1540 ------- 0 1.0 3.1 11 32
r 1.137774 0 2 tcp 1540 ------- 0 0.0 3.0 7 36
+ 1.137774 2 3 tcp 1540 ------- 0 0.0 3.0 7 36
r 1.137898 0 2 tcp 1540 ------- 0 0.0 3.0 8 37
+ 1.137898 2 3 tcp 1540 ------- 0 0.0 3.0 8 37
- 1.138943 2 3 tcp 1540 ------- 0 1.0 3.1 12 33
r 1.139006 0 2 tcp 1540 ------- 0 0.0 3.0 9 38
+ 1.139006 2 3 tcp 1540 ------- 0 0.0 3.0 9 38
r 1.13913 0 2 tcp 1540 ------- 0 0.0 3.0 10 39
+ 1.13913 2 3 tcp 1540 ------- 0 0.0 3.0 10 39
- 1.140175 2 3 tcp 1540 ------- 0 1.0 3.1 13 34
r 1.140238 0 2 tcp 1540 ------- 0 0.0 3.0 11 40
+ 1.140238 2 3 tcp 1540 ------- 0 0.0 3.0 11 40
r 1.140362 0 2 tcp 1540 ------- 0 0.0 3.0 12 41
+ 1.140362 2 3 tcp 1540 ------- 0 0.0 3.0 12 41
- 1.141407 2 3 tcp 1540 ------- 0 1.0 3.1 14 35
r 1.14147 0 2 tcp 1540 ------- 0 0.0 3.0 13 42
+ 1.14147 2 3 tcp 1540 ------- 0 0.0 3.0 13 42
r 1.141594 0 2 tcp 1540 ------- 0 0.0 3.0 14 43
+ 1.141594 2 3 tcp 1540 ------- 0 0.0 3.0 14 43
- 1.142639 2 3 tcp 1540 ------- 0 0.0 3.0 7 36
- 1.143871 2 3 tcp 1540 ------- 0 0.0 3.0 8 37
r 1.144015 2 3 tcp 1540 ------- 0 1.0 3.1 7 28
+ 1.144015 3 2 ack 40 ------- 0 3.1 1.0 7 44
- 1.144015 3 2 ack 40 ------- 0 3.1 1.0 7 44
- 1.145103 2 3 tcp 1540 ------- 0 0.0 3.0 9 38
r 1.145247 2 3 tcp 1540 ------- 0 1.0 3.1 8 29
+ 1.145247 3 2 ack 40 ------- 0 3.1 1.0 8 45
- 1.145247 3 2 ack 40 ------- 0 3.1 1.0 8 45
- 1.146335 2 3 tcp 1540 ------- 0 0.0 3.0 10 39
r 1.146479 2 3 tcp 1540 ------- 0 1.0 3.1 9 30
+ 1.146479 3 2 ack 40 ------- 0 3.1 1.0 9 46
- 1.146479 3 2 ack 40 ------- 0 3.1 1.0 9 46
- 1.147567 2 3 tcp 1540 ------- 0 0.0 3.0 11 40
r 1.147711 2 3 tcp 1540 ------- 0 1.0 3.1 10 31
+ 1.147711 3 2 ack 40 ------- 0 3.1 1.0 10 47
- 1.147711 3 2 ack 40 ------- 0 3.1 1.0 10 47
- 1.148799 2 3 tcp 1540 ------- 0 0.0 3.0 12 41
r 1.148943 2 3 tcp 1540 ------- 0 1.0 3.1 11 32
+ 1.148943 3 2 ack 40 ------- 0 3.1 1.0 11 48
- 1.148943 3 2 ack 40 ------- 0 3.1 1.0 11 48
- 1.150031 2 3 tcp 1540 ------- 0 0.0 3.0 13 42
r 1.150175 2 3 tcp 1540 ------- 0 1.0 3.1 12 33
+ 1.150175 3 2 ack 40 ------- 0 3.1 1.0 12 49
- 1.150175 3 2 ack 40 ------- 0 3.1 1.0 12 49
- 1.151263 2 3 tcp 1540 ------- 0 0.0 3.0 14 43
r 1.151407 2 3 tcp 1540 ------- 0 1.0 3.1 13 34
+ 1.151407 3 2 ack 40 ------- 0 3.1 1.0 13 50
- 1.151407 3 2 ack 40 ------- 0 3.1 1.0 13 50
r 1.152639 2 3 tcp 1540 ------- 0 1.0 3.1 14 35
+ 1.152639 3 2 ack 40 ------- 0 3.1 1.0 14 51
- 1.152639 3 2 ack 40 ------- 0 3.1 1.0 14 51
r 1.153871 2 3 tcp 1540 ------- 0 0.0 3.0 7 36
+ 1.153871 3 2 ack 40 ------- 0 3.0 0.0 7 52
- 1.153871 3 2 ack 40 ------- 0 3.0 0.0 7 52
r 1.154047 3 2 ack 40 ------- 0 3.1 1.0 7 44
+ 1.154047 2 1 ack 40 ------- 0 3.1 1.0 7 44
- 1.154047 2 1 ack 40 ------- 0 3.1 1.0 7 44
r 1.155103 2 3 tcp 1540 ------- 0 0.0 3.0 8 37
+ 1.155103 3 2 ack 40 ------- 0 3.0 0.0 8 53
- 1.155103 3 2 ack 40 ------- 0 3.0 0.0 8 53
r 1.155279 3 2 ack 40 ------- 0 3.1 1.0 8 45
+ 1.155279 2 1 ack 40 ------- 0 3.1 1.0 8 45
- 1.155279 2 1 ack 40 ------- 0 3.1 1.0 8 45
r 1.156335 2 3 tcp 1540 ------- 0 0.0 3.0 9 38
+ 1.156335 3 2 ack 40 ------- 0 3.0 0.0 9 54
- 1.156335 3 2 ack 40 ------- 0 3.0 0.0 9 54
r 1.156511 3 2 ack 40 ------- 0 3.1 1.0 9 46
+ 1.156511 2 1 ack 40 ------- 0 3.1 1.0 9 46
- 1.156511 2 1 ack 40 ------- 0 3.1 1.0 9 46
r 1.157567 2 3 tcp 1540 ------- 0 0.0 3.0 10 39
+ 1.157567 3 2 ack 40 ------- 0 3.0 0.0 10 55
- 1.157567 3 2 ack 40 ------- 0 3.0 0.0 10 55
r 1.157743 3 2 ack 40 ------- 0 3.1 1.0 10 47
+ 1.157743 2 1 ack 40 ------- 0 3.1 1.0 10 47
- 1.157743 2 1 ack 40 ------- 0 3.1 1.0 10 47
r 1.158799 2 3 tcp 1540 ------- 0 0.0 3.0 11 40
+ 1.158799 3 2 ack 40 ------- 0 3.0 0.0 11 56
- 1.158799 3 2 ack 40 ------- 0 3.0 0.0 11 56
r 1.158975 3 2 ack 40 ------- 0 3.1 1.0 11 48
+ 1.158975 2 1 ack 40 ------- 0 3.1 1.0 11 48
- 1.158975 2 1 ack 40 ------- 0 3.1 1.0 11 48
r 1.160031 2 3 tcp 1540 ------- 0 0.0 3.0 12 41
+ 1.160031 3 2 ack 40 ------- 0 3.0 0.0 12 57
- 1.160031 3 2 ack 40 ------- 0 3.0 0.0 12 57
r 1.160207 3 2 ack 40 ------- 0 3.1 1.0 12 49
+ 1.160207 2 1 ack 40 ------- 0 3.1 1.0 12 49
- 1.160207 2 1 ack 40 ------- 0 3.1 1.0 12 49
r 1.161263 2 3 tcp 1540 ------- 0 0.0 3.0 13 42
+ 1.161263 3 2 ack 40 ------- 0 3.0 0.0 13 58
- 1.161263 3 2 ack 40 ------- 0 3.0 0.0 13 58
r 1.161439 3 2 ack 40 ------- 0 3.1 1.0 13 50
+ 1.161439 2 1 ack 40 ------- 0 3.1 1.0 13 50
- 1.161439 2 1 ack 40 ------- 0 3.1 1.0 13 50
r 1.162495 2 3 tcp 1540 ------- 0 0.0 3.0 14 43
+ 1.162495 3 2 ack 40 ------- 0 3.0 0.0 14 59
- 1.162495 3 2 ack 40 ------- 0 3.0 0.0 14 59
r 1.162671 3 2 ack 40 ------- 0 3.1 1.0 14 51
+ 1.162671 2 1 ack 40 ------- 0 3.1 1.0 14 51
- 1.162671 2 1 ack 40 ------- 0 3.1 1.0 14 51
r 1.163903 3 2 ack 40 ------- 0 3.0 0.0 7 52
+ 1.163903 2 0 ack 40 ------- 0 3.0 0.0 7 52
- 1.163903 2 0 ack 40 ------- 0 3.0 0.0 7 52
r 1.164049 2 1 ack 40 ------- 0 3.1 1.0 7 44
+ 1.164049 1 2 tcp 1540 ------- 0 1.0 3.1 15 60
- 1.164049 1 2 tcp 1540 ------- 0 1.0 3.1 15 60
+ 1.164049 1 2 tcp 1540 ------- 0 1.0 3.1 16 61
- 1.16411 1 2 tcp 1540 ------- 0 1.0 3.1 16 61
r 1.165135 3 2 ack 40 ------- 0 3.0 0.0 8 53
+ 1.165135 2 0 ack 40 ------- 0 3.0 0.0 8 53
- 1.165135 2 0 ack 40 ------- 0 3.0 0.0 8 53
r 1.165281 2 1 ack 40 ------- 0 3.1 1.0 8 45
+ 1.165281 1 2 tcp 1540 ------- 0 1.0 3.1 17 62
- 1.165281 1 2 tcp 1540 ------- 0 1.0 3.1 17 62
+ 1.165281 1 2 tcp 1540 ------- 0 1.0 3.1 18 63
- 1.165342 1 2 tcp 1540 ------- 0 1.0 3.1 18 63
r 1.166367 3 2 ack 40 ------- 0 3.0 0.0 9 54
+ 1.166367 2 0 ack 40 ------- 0 3.0 0.0 9 54
- 1.166367 2 0 ack 40 ------- 0 3.0 0.0 9 54
r 1.166513 2 1 ack 40 ------- 0 3.1 1.0 9 46
+ 1.166513 1 2 tcp 1540 ------- 0 1.0 3.1 19 64
- 1.166513 1 2 tcp 1540 ------- 0 1.0 3.1 19 64
+ 1.166513 1 2 tcp 1540 ------- 0 1.0 3.1 20 65
- 1.166574 1 2 tcp 1540 ------- 0 1.0 3.1 20 65
r 1.167599 3 2 ack 40 ------- 0 3.0 0.0 10 55
+ 1.167599 2 0 ack 40 ------- 0 3.0 0.0 10 55
- 1.167599 2 0 ack 40 ------- 0 3.0 0.0 10 55
r 1.167745 2 1 ack 40 ------- 0 3.1 1.0 10 47
+ 1.167745 1 2 tcp 1540 ------- 0 1.0 3.1 21 66
- 1.167745 1 2 tcp 1540 ------- 0 1.0 3.1 21 66
+ 1.167745 1 2 tcp 1540 ------- 0 1.0 3.1 22 67
- 1.167806 1 2 tcp 1540 ------- 0 1.0 3.1 22 67
r 1.168831 3 2 ack 40 ------- 0 3.0 0.0 11 56
+ 1.168831 2 0 ack 40 ------- 0 3.0 0.0 11 56
- 1.168831 2 0 ack 40 ------- 0 3.0 0.0 11 56
r 1.168977 2 1 ack 40 ------- 0 3.1 1.0 11 48
+ 1.168977 1 2 tcp 1540 ------- 0 1.0 3.1 23 68
- 1.168977 1 2 tcp 1540 ------- 0 1.0 3.1 23 68
+ 1.168977 1 2 tcp 1540 ------- 0 1.0 3.1 24 69
- 1.169038 1 2 tcp 1540 ------- 0 1.0 3.1 24 69
r 1.170063 3 2 ack 40 ------- 0 3.0 0.0 12 57
+ 1.170063 2 0 ack 40 ------- 0 3.0 0.0 12 57
- 1.170063 2 0 ack 40 ------- 0 3.0 0.0 12 57
r 1.170209 2 1 ack 40 ------- 0 3.1 1.0 12 49
+ 1.170209 1 2 tcp 1540 ------- 0 1.0 3.1 25 70
- 1.170209 1 2 tcp 1540 ------- 0 1.0 3.1 25 70
+ 1.170209 1 2 tcp 1540 ------- 0 1.0 3.1 26 71
- 1.17027 1 2 tcp 1540 ------- 0 1.0 3.1 26 71
r 1.171295 3 2 ack 40 ------- 0 3.0 0.0 13 58
+ 1.171295 2 0 ack 40 ------- 0 3.0 0.0 13 58
- 1.171295 2 0 ack 40 ------- 0 3.0 0.0 13 58
r 1.171441 2 1 ack 40 ------- 0 3.1 1.0 13 50
+ 1.171441 1 2 tcp 1540 ------- 0 1.0 3.1 27 72
- 1.171441 1 2 tcp 1540 ------- 0 1.0 3.1 27 72
+ 1.171441 1 2 tcp 1540 ------- 0 1.0 3.1 28 73
- 1.171502 1 2 tcp 1540 ------- 0 1.0 3.1 28 73
r 1.172527 3 2 ack 40 ------- 0 3.0 0.0 14 59
+ 1.172527 2 0 ack 40 ------- 0 3.0 0.0 14 59
- 1.172527 2 0 ack 40 ------- 0 3.0 0.0 14 59
r 1.172673 2 1 ack 40 ------- 0 3.1 1.0 14 51
+ 1.172673 1 2 tcp 1540 ------- 0 1.0 3.1 29 74
- 1.172673 1 2 tcp 1540 ------- 0 1.0 3.1 29 74
+ 1.172673 1 2 tcp 1540 ------- 0 1.0 3.1 30 75
- 1.172734 1 2 tcp 1540 ------- 0 1.0 3.1 30 75
r 1.173906 2 0 ack 40 ------- 0 3.0 0.0 7 52
+ 1.173906 0 2 tcp 1540 ------- 0 0.0 3.0 15 76
- 1.173906 0 2 tcp 1540 ------- 0 0.0 3.0 15 76
+ 1.173906 0 2 tcp 1540 ------- 0 0.0 3.0 16 77
- 1.17403 0 2 tcp 1540 ------- 0 0.0 3.0 16 77
r 1.17411 1 2 tcp 1540 ------- 0 1.0 3.1 15 60
+ 1.17411 2 3 tcp 1540 ------- 0 1.0 3.1 15 60
- 1.17411 2 3 tcp 1540 ------- 0 1.0 3.1 15 60
r 1.174172 1 2 tcp 1540 ------- 0 1.0 3.1 16 61
+ 1.174172 2 3 tcp 1540 ------- 0 1.0 3.1 16 61
r 1.175138 2 0 ack 40 ------- 0 3.0 0.0 8 53
+ 1.175138 0 2 tcp 1540 ------- 0 0.0 3.0 17 78
- 1.175138 0 2 tcp 1540 ------- 0 0.0 3.0 17 78
+ 1.175138 0 2 tcp 1540 ------- 0 0.0 3.0 18 79
- 1.175262 0 2 tcp 1540 ------- 0 0.0 3.0 18 79
r 1.175342 1 2 tcp 1540 ------- 0 1.0 3.1 17 62
+ 1.175342 2 3 tcp 1540 ------- 0 1.0 3.1 17 62
- 1.175342 2 3 tcp 1540 ------- 0 1.0 3.1 16 61
r 1.175404 1 2 tcp 1540 ------- 0 1.0 3.1 18 63
+ 1.175404 2 3 tcp 1540 ------- 0 1.0 3.1 18 63
r 1.17637 2 0 ack 40 ------- 0 3.0 0.0 9 54
+ 1.17637 0 2 tcp 1540 ------- 0 0.0 3.0 19 80
- 1.17637 0 2 tcp 1540 ------- 0 0.0 3.0 19 80
+ 1.17637 0 2 tcp 1540 ------- 0 0.0 3.0 20 81
- 1.176494 0 2 tcp 1540 ------- 0 0.0 3.0 20 81
r 1.176574 1 2 tcp 1540 ------- 0 1.0 3.1 19 64
+ 1.176574 2 3 tcp 1540 ------- 0 1.0 3.1 19 64
- 1.176574 2 3 tcp 1540 ------- 0 1.0 3.1 17 62
r 1.176636 1 2 tcp 1540 ------- 0 1.0 3.1 20 65
+ 1.176636 2 3 tcp 1540 ------- 0 1.0 3.1 20 65
r 1.177602 2 0 ack 40 ------- 0 3.0 0.0 10 55
+ 1.177602 0 2 tcp 1540 ------- 0 0.0 3.0 21 82
- 1.177602 0 2 tcp 1540 ------- 0 0.0 3.0 21 82
+ 1.177602 0 2 tcp 1540 ------- 0 0.0 3.0 22 83
- 1.177726 0 2 tcp 1540 ------- 0 0.0 3.0 22 83
r 1.177806 1 2 tcp 1540 ------- 0 1.0 3.1 21 66
+ 1.177806 2 3 tcp 1540 ------- 0 1.0 3.1 21 66
- 1.177806 2 3 tcp 1540 ------- 0 1.0 3.1 18 63
r 1.177868 1 2 tcp 1540 ------- 0 1.0 3.1 22 67
+ 1.177868 2 3 tcp 1540 ------- 0 1.0 3.1 22 67
r 1.178834 2 0 ack 40 ------- 0 3.0 0.0 11 56
+ 1.178834 0 2 tcp 1540 ------- 0 0.0 3.0 23 84
- 1.178834 0 2 tcp 1540 ------- 0 0.0 3.0 23 84
+ 1.178834 0 2 tcp 1540 ------- 0 0.0 3.0 24 85
- 1.178958 0 2 tcp 1540 ------- 0 0.0 3.0 24 85
r 1.179038 1 2 tcp 1540 ------- 0 1.0 3.1 23 68
+ 1.179038 2 3 tcp 1540 ------- 0 1.0 3.1 23 68
- 1.179038 2 3 tcp 1540 ------- 0 1.0 3.1 19 64
r 1.1791 1 2 tcp 1540 ------- 0 1.0 3.1 24 69
+ 1.1791 2 3 tcp 1540 ------- 0 1.0 3.1 24 69
r 1.180066 2 0 ack 40 ------- 0 3.0 0.0 12 57
+ 1.180066 0 2 tcp 1540 ------- 0 0.0 3.0 25 86
- 1.180066 0 2 tcp 1540 ------- 0 0.0 3.0 25 86
+ 1.180066 0 2 tcp 1540 ------- 0 0.0 3.0 26 87
- 1.18019 0 2 tcp 1540 ------- 0 0.0 3.0 26 87
r 1.18027 1 2 tcp 1540 ------- 0 1.0 3.1 25 70
+ 1.18027 2 3 tcp 1540 ------- 0 1.0 3.1 25 70
- 1.18027 2 3 tcp 1540 ------- 0 1.0 3.1 20 65
r 1.180332 1 2 tcp 1540 ------- 0 1.0 3.1 26 71
+ 1.180332 2 3 tcp 1540 ------- 0 1.0 3.1 26 71
r 1.181298 2 0 ack 40 ------- 0 3.0 0.0 13 58
+ 1.181298 0 2 tcp 1540 ------- 0 0.0 3.0 27 88
- 1.181298 0 2 tcp 1540 ------- 0 0.0 3.0 27 88
+ 1.181298 0 2 tcp 1540 ------- 0 0.0 3.0 28 89
- 1.181422 0 2 tcp 1540 ------- 0 0.0 3.0 28 89
r 1.181502 1 2 tcp 1540 ------- 0 1.0 3.1 27 72
+ 1.181502 2 3 tcp 1540 ------- 0 1.0 3.1 27 72
- 1.181502 2 3 tcp 1540 ------- 0 1.0 3.1 21 66
r 1.181564 1 2 tcp 1540 ------- 0 1.0 3.1 28 73
+ 1.181564 2 3 tcp 1540 ------- 0 1.0 3.1 28 73
r 1.18253 2 0 ack 40 ------- 0 3.0 0.0 14 59
+ 1.18253 0 2 tcp 1540 ------- 0 0.0 3.0 29 90
- 1.18253 0 2 tcp 1540 ------- 0 0.0 3.0 29 90
+ 1.18253 0 2 tcp 1540 ------- 0 0.0 3.0 30 91
- 1.182654 0 2 tcp 1540 ------- 0 0.0 3.0 30 91
r 1.182734 1 2 tcp 1540 ------- 0 1.0 3.1 29 74
+ 1.182734 2 3 tcp 1540 ------- 0 1.0 3.1 29 74
- 1.182734 2 3 tcp 1540 ------- 0 1.0 3.1 22 67
r 1.182796 1 2 tcp 1540 ------- 0 1.0 3.1 30 75
+ 1.182796 2 3 tcp 1540 ------- 0 1.0 3.1 30 75
- 1.183966 2 3 tcp 1540 ------- 0 1.0 3.1 23 68
r 1.18403 0 2 tcp 1540 ------- 0 0.0 3.0 15 76
+ 1.18403 2 3 tcp 1540 ------- 0 0.0 3.0 15 76
r 1.184153 0 2 tcp 1540 ------- 0 0.0 3.0 16 77
+ 1.184153 2 3 tcp 1540 ------- 0 0.0 3.0 16 77
- 1.185198 2 3 tcp 1540 ------- 0 1.0 3.1 24 69
r 1.185262 0 2 tcp 1540 ------- 0 0.0 3.0 17 78
+ 1.185262 2 3 tcp 1540 ------- 0 0.0 3.0 17 78
r 1.185342 2 3 tcp 1540 ------- 0 1.0 3.1 15 60
+ 1.185342 3 2 ack 40 ------- 0 3.1 1.0 15 92
- 1.185342 3 2 ack 40 ------- 0 3.1 1.0 15 92
r 1.185385 0 2 tcp 1540 ------- 0 0.0 3.0 18 79
+ 1.185385 2 3 tcp 1540 ------- 0 0.0 3.0 18 79
d 1.185385 2 3 tcp 1540 ------- 0 0.0 3.0 18 79
- 1.18643 2 3 tcp 1540 ------- 0 1.0 3.1 25 70
r 1.186494 0 2 tcp 1540 ------- 0 0.0 3.0 19 80
+ 1.186494 2 3 tcp 1540 ------- 0 0.0 3.0 19 80
r 1.186574 2 3 tcp 1540 ------- 0 1.0 3.1 16 61
+ 1.186574 3 2 ack 40 ------- 0 3.1 1.0 16 93
- 1.186574 3 2 ack 40 ------- 0 3.1 1.0 16 93
r 1.186617 0 2 tcp 1540 ------- 0 0.0 3.0 20 81
+ 1.186617 2 3 tcp 1540 ------- 0 0.0 3.0 20 81
d 1.186617 2 3 tcp 1540 ------- 0 0.0 3.0 20 81
- 1.187662 2 3 tcp 1540 ------- 0 1.0 3.1 26 71
r 1.187726 0 2 tcp 1540 ------- 0 0.0 3.0 21 82
+ 1.187726 2 3 tcp 1540 ------- 0 0.0 3.0 21 82
r 1.187806 2 3 tcp 1540 ------- 0 1.0 3.1 17 62
+ 1.187806 3 2 ack 40 ------- 0 3.1 1.0 17 94
- 1.187806 3 2 ack 40 ------- 0 3.1 1.0 17 94
r 1.187849 0 2 tcp 1540 ------- 0 0.0 3.0 22 83
+ 1.187849 2 3 tcp 1540 ------- 0 0.0 3.0 22 83
d 1.187849 2 3 tcp 1540 ------- 0 0.0 3.0 22 83
- 1.188894 2 3 tcp 1540 ------- 0 1.0 3.1 27 72
r 1.188958 0 2 tcp 1540 ------- 0 0.0 3.0 23 84
+ 1.188958 2 3 tcp 1540 ------- 0 0.0 3.0 23 84
r 1.189038 2 3 tcp 1540 ------- 0 1.0 3.1 18 63
+ 1.189038 3 2 ack 40 ------- 0 3.1 1.0 18 95
- 1.189038 3 2 ack 40 ------- 0 3.1 1.0 18 95
r 1.189081 0 2 tcp 1540 ------- 0 0.0 3.0 24 85
+ 1.189081 2 3 tcp 1540 ------- 0 0.0 3.0 24 85
d 1.189081 2 3 tcp 1540 ------- 0 0.0 3.0 24 85
- 1.190126 2 3 tcp 1540 ------- 0 1.0 3.1 28 73
r 1.19019 0 2 tcp 1540 ------- 0 0.0 3.0 25 86
+ 1.19019 2 3 tcp 1540 ------- 0 0.0 3.0 25 86
r 1.19027 2 3 tcp 1540 ------- 0 1.0 3.1 19 64
+ 1.19027 3 2 ack 40 ------- 0 3.1 1.0 19 96
- 1.19027 3 2 ack 40 ------- 0 3.1 1.0 19 96
r 1.190313 0 2 tcp 1540 ------- 0 0.0 3.0 26 87
+ 1.190313 2 3 tcp 1540 ------- 0 0.0 3.0 26 87
d 1.190313 2 3 tcp 1540 ------- 0 0.0 3.0 26 87
- 1.191358 2 3 tcp 1540 ------- 0 1.0 3.1 29 74
r 1.191422 0 2 tcp 1540 ------- 0 0.0 3.0 27 88
+ 1.191422 2 3 tcp 1540 ------- 0 0.0 3.0 27 88
r 1.191502 2 3 tcp 1540 ------- 0 1.0 3.1 20 65
+ 1.191502 3 2 ack 40 ------- 0 3.1 1.0 20 97
- 1.191502 3 2 ack 40 ------- 0 3.1 1.0 20 97
r 1.191545 0 2 tcp 1540 ------- 0 0.0 3.0 28 89
+ 1.191545 2 3 tcp 1540 ------- 0 0.0 3.0 28 89
d 1.191545 2 3 tcp 1540 ------- 0 0.0 3.0 28 89
- 1.19259 2 3 tcp 1540 ------- 0 1.0 3.1 30 75
r 1.192654 0 2 tcp 1540 ------- 0 0.0 3.0 29 90
+ 1.192654 2 3 tcp 1540 ------- 0 0.0 3.0 29 90
r 1.192734 2 3 tcp 1540 ------- 0 1.0 3.1 21 66
+ 1.192734 3 2 ack 40 ------- 0 3.1 1.0 21 98
- 1.192734 3 2 ack 40 ------- 0 3.1 1.0 21 98
r 1.192777 0 2 tcp 1540 ------- 0 0.0 3.0 30 91
+ 1.192777 2 3 tcp 1540 ------- 0 0.0 3.0 30 91
d 1.192777 2 3 tcp 1540 ------- 0 0.0 3.0 30 91
- 1.193822 2 3 tcp 1540 ------- 0 0.0 3.0 15 76
r 1.193966 2 3 tcp 1540 ------- 0 1.0 3.1 22 67
+ 1.193966 3 2 ack 40 ------- 0 3.1 1.0 22 99
- 1.193966 3 2 ack 40 ------- 0 3.1 1.0 22 99
- 1.195054 2 3 tcp 1540 ------- 0 0.0 3.0 16 77
r 1.195198 2 3 tcp 1540 ------- 0 1.0 3.1 23 68
+ 1.195198 3 2 ack 40 ------- 0 3.1 1.0 23 100
- 1.195198 3 2 ack 40 ------- 0 3.1 1.0 23 100
r 1.195374 3 2 ack 40 ------- 0 3.1 1.0 15 92
+ 1.195374 2 1 ack 40 ------- 0 3.1 1.0 15 92
- 1.195374 2 1 ack 40 ------- 0 3.1 1.0 15 92
- 1.196286 2 3 tcp 1540 ------- 0 0.0 3.0 17 78
r 1.19643 2 3 tcp 1540 ------- 0 1.0 3.1 24 69
+ 1.19643 3 2 ack 40 ------- 0 3.1 1.0 24 101
- 1.19643 3 2 ack 40 ------- 0 3.1 1.0 24 101
r 1.196606 3 2 ack 40 ------- 0 3.1 1.0 16 93
+ 1.196606 2 1 ack 40 ------- 0 3.1 1.0 16 93
- 1.196606 2 1 ack 40 ------- 0 3.1 1.0 16 93
- 1.197518 2 3 tcp 1540 ------- 0 0.0 3.0 19 80
r 1.197662 2 3 tcp 1540 ------- 0 1.0 3.1 25 70
+ 1.197662 3 2 ack 40 ------- 0 3.1 1.0 25 102
- 1.197662 3 2 ack 40 ------- 0 3.1 1.0 25 102
r 1.197838 3 2 ack 40 ------- 0 3.1 1.0 17 94
+ 1.197838 2 1 ack 40 ------- 0 3.1 1.0 17 94
- 1.197838 2 1 ack 40 ------- 0 3.1 1.0 17 94
- 1.19875 2 3 tcp 1540 ------- 0 0.0 3.0 21 82
r 1.198894 2 3 tcp 1540 ------- 0 1.0 3.1 26 71
+ 1.198894 3 2 ack 40 ------- 0 3.1 1.0 26 103
- 1.198894 3 2 ack 40 ------- 0 3.1 1.0 26 103
r 1.19907 3 2 ack 40 ------- 0 3.1 1.0 18 95
+ 1.19907 2 1 ack 40 ------- 0 3.1 1.0 18 95
- 1.19907 2 1 ack 40 ------- 0 3.1 1.0 18 95
- 1.199982 2 3 tcp 1540 ------- 0 0.0 3.0 23 84
r 1.200126 2 3 tcp 1540 ------- 0 1.0 3.1 27 72
+ 1.200126 3 2 ack 40 ------- 0 3.1 1.0 27 104
- 1.200126 3 2 ack 40 ------- 0 3.1 1.0 27 104
r 1.200302 3 2 ack 40 ------- 0 3.1 1.0 19 96
+ 1.200302 2 1 ack 40 ------- 0 3.1 1.0 19 96
- 1.200302 2 1 ack 40 ------- 0 3.1 1.0 19 96
- 1.201214 2 3 tcp 1540 ------- 0 0.0 3.0 25 86
r 1.201358 2 3 tcp 1540 ------- 0 1.0 3.1 28 73
+ 1.201358 3 2 ack 40 ------- 0 3.1 1.0 28 105
- 1.201358 3 2 ack 40 ------- 0 3.1 1.0 28 105
r 1.201534 3 2 ack 40 ------- 0 3.1 1.0 20 97
+ 1.201534 2 1 ack 40 ------- 0 3.1 1.0 20 97
- 1.201534 2 1 ack 40 ------- 0 3.1 1.0 20 97
- 1.202446 2 3 tcp 1540 ------- 0 0.0 3.0 27 88
r 1.20259 2 3 tcp 1540 ------- 0 1.0 3.1 29 74
+ 1.20259 3 2 ack 40 ------- 0 3.1 1.0 29 106
- 1.20259 3 2 ack 40 ------- 0 3.1 1.0 29 106
r 1.202766 3 2 ack 40 ------- 0 3.1 1.0 21 98
+ 1.202766 2 1 ack 40 ------- 0 3.1 1.0 21 98
- 1.202766 2 1 ack 40 ------- 0 3.1 1.0 21 98
- 1.203678 2 3 tcp 1540 ------- 0 0.0 3.0 29 90
r 1.203822 2 3 tcp 1540 ------- 0 1.0 3.1 30 75
+ 1.203822 3 2 ack 40 ------- 0 3.1 1.0 30 107
- 1.203822 3 2 ack 40 ------- 0 3.1 1.0 30 107
r 1.203998 3 2 ack 40 ------- 0 3.1 1.0 22 99
+ 1.203998 2 1 ack 40 ------- 0 3.1 1.0 22 99
- 1.203998 2 1 ack 40 ------- 0 3.1 1.0 22 99
r 1.205054 2 3 tcp 1540 ------- 0 0.0 3.0 15 76
+ 1.205054 3 2 ack 40 ------- 0 3.0 0.0 15 108
- 1.205054 3 2 ack 40 ------- 0 3.0 0.0 15 108
r 1.20523 3 2 ack 40 ------- 0 3.1 1.0 23 100
+ 1.20523 2 1 ack 40 ------- 0 3.1 1.0 23 100
- 1.20523 2 1 ack 40 ------- 0 3.1 1.0 23 100
r 1.205376 2 1 ack 40 ------- 0 3.1 1.0 15 92
+ 1.205376 1 2 tcp 1540 ------- 0 1.0 3.1 31 109
- 1.205376 1 2 tcp 1540 ------- 0 1.0 3.1 31 109
+ 1.205376 1 2 tcp 1540 ------- 0 1.0 3.1 32 110
- 1.205438 1 2 tcp 1540 ------- 0 1.0 3.1 32 110
r 1.206286 2 3 tcp 1540 ------- 0 0.0 3.0 16 77
+ 1.206286 3 2 ack 40 ------- 0 3.0 0.0 16 111
- 1.206286 3 2 ack 40 ------- 0 3.0 0.0 16 111
r 1.206462 3 2 ack 40 ------- 0 3.1 1.0 24 101
+ 1.206462 2 1 ack 40 ------- 0 3.1 1.0 24 101
- 1.206462 2 1 ack 40 ------- 0 3.1 1.0 24 101
r 1.206608 2 1 ack 40 ------- 0 3.1 1.0 16 93
+ 1.206608 1 2 tcp 1540 ------- 0 1.0 3.1 33 112
- 1.206608 1 2 tcp 1540 ------- 0 1.0 3.1 33 112
+ 1.206608 1 2 tcp 1540 ------- 0 1.0 3.1 34 113
- 1.20667 1 2 tcp 1540 ------- 0 1.0 3.1 34 113
r 1.207518 2 3 tcp 1540 ------- 0 0.0 3.0 17 78
+ 1.207518 3 2 ack 40 ------- 0 3.0 0.0 17 114
- 1.207518 3 2 ack 40 ------- 0 3.0 0.0 17 114
r 1.207694 3 2 ack 40 ------- 0 3.1 1.0 25 102
+ 1.207694 2 1 ack 40 ------- 0 3.1 1.0 25 102
- 1.207694 2 1 ack 40 ------- 0 3.1 1.0 25 102
r 1.20784 2 1 ack 40 ------- 0 3.1 1.0 17 94
+ 1.20784 1 2 tcp 1540 ------- 0 1.0 3.1 35 115
- 1.20784 1 2 tcp 1540 ------- 0 1.0 3.1 35 115
+ 1.20784 1 2 tcp 1540 ------- 0 1.0 3.1 36 116
- 1.207902 1 2 tcp 1540 ------- 0 1.0 3.1 36 116
r 1.20875 2 3 tcp 1540 ------- 0 0.0 3.0 19 80
+ 1.20875 3 2 ack 40 ------- 0 3.0 0.0 17 117
- 1.20875 3 2 ack 40 ------- 0 3.0 0.0 17 117
r 1.208926 3 2 ack 40 ------- 0 3.1 1.0 26 103
+ 1.208926 2 1 ack 40 ------- 0 3.1 1.0 26 103
- 1.208926 2 1 ack 40 ------- 0 3.1 1.0 26 103
r 1.209072 2 1 ack 40 ------- 0 3.1 1.0 18 95
+ 1.209072 1 2 tcp 1540 ------- 0 1.0 3.1 37 118
- 1.209072 1 2 tcp 1540 ------- 0 1.0 3.1 37 118
+ 1.209072 1 2 tcp 1540 ------- 0 1.0 3.1 38 119
- 1.209134 1 2 tcp 1540 ------- 0 1.0 3.1 38 119
r 1.209982 2 3 tcp 1540 ------- 0 0.0 3.0 21 82
+ 1.209982 3 2 ack 40 ------- 0 3.0 0.0 17 120
- 1.209982 3 2 ack 40 ------- 0 3.0 0.0 17 120
r 1.210158 3 2 ack 40 ------- 0 3.1 1.0 27 104
+ 1.210158 2 1 ack 40 ------- 0 3.1 1.0 27 104
- 1.210158 2 1 ack 40 ------- 0 3.1 1.0 27 104
r 1.210304 2 1 ack 40 ------- 0 3.1 1.0 19 96