V -t * -v 1.0a5 -a 0
A -t * -n 1 -p 0 -o 0x7fffffff -c 30 -a 1
A -t * -h 1 -m 1073741823 -s 0
n -t * -a 4 -s 4 -S UP -v circle -c black -i black
n -t * -a 0 -s 0 -S UP -v circle -c black -i black
n -t * -a 5 -s 5 -S UP -v circle -c black -i black
n -t * -a 1 -s 1 -S UP -v circle -c black -i black
n -t * -a 6 -s 6 -S UP -v circle -c black -i black
n -t * -a 2 -s 2 -S UP -v circle -c black -i black
n -t * -a 7 -s 7 -S UP -v circle -c black -i black
n -t * -a 3 -s 3 -S UP -v circle -c black -i black
l -t * -s 3 -d 4 -S UP -r 100000000 -D 0.01 -c black -o left-down
X -t * -n 8 -r 100Mb -D 300ms -o left
L -t * -s 8 -d 0 -o up
L -t * -s 8 -d 1 -o down
L -t * -s 8 -d 2 -o up
L -t * -s 8 -d 3 -o down
X -t * -n 9 -r 100Mb -D 300ms -o left
L -t * -s 9 -d 4 -o up
L -t * -s 9 -d 5 -o down
L -t * -s 9 -d 6 -o up
L -t * -s 9 -d 7 -o down
h -t 1 -s 1 -d 8 -p cbr -e 1000 -c 0 -i 0 -a 0 -x {1.0 7.0 0 ------- null}
h -t 1.008 -s 1 -d 8 -p cbr -e 1000 -c 0 -i 1 -a 0 -x {1.0 7.0 1 ------- null}
h -t 1.016 -s 1 -d 8 -p cbr -e 1000 -c 0 -i 2 -a 0 -x {1.0 7.0 2 ------- null}
h -t 1.024 -s 1 -d 8 -p cbr -e 1000 -c 0 -i 3 -a 0 -x {1.0 7.0 3 ------- null}
h -t 1.032 -s 1 -d 8 -p cbr -e 1000 -c 0 -i 4 -a 0 -x {1.0 7.0 4 ------- null}
h -t 1.04 -s 1 -d 8 -p cbr -e 1000 -c 0 -i 5 -a 0 -x {1.0 7.0 5 ------- null}
h -t 1.048 -s 1 -d 8 -p cbr -e 1000 -c 0 -i 6 -a 0 -x {1.0 7.0 6 ------- null}
h -t 1.056 -s 1 -d 8 -p cbr -e 1000 -c 0 -i 7 -a 0 -x {1.0 7.0 7 ------- null}
h -t 1.064 -s 1 -d 8 -p cbr -e 1000 -c 0 -i 8 -a 0 -x {1.0 7.0 8 ------- null}
h -t 1.072 -s 1 -d 8 -p cbr -e 1000 -c 0 -i 9 -a 0 -x {1.0 7.0 9 ------- null}
h -t 1.08 -s 1 -d 8 -p cbr -e 1000 -c 0 -i 10 -a 0 -x {1.0 7.0 10 ------- null}
h -t 1.088 -s 1 -d 8 -p cbr -e 1000 -c 0 -i 11 -a 0 -x {1.0 7.0 11 ------- null}
h -t 1.096 -s 1 -d 8 -p cbr -e 1000 -c 0 -i 12 -a 0 -x {1.0 7.0 12 ------- null}
h -t 1.104 -s 1 -d 8 -p cbr -e 1000 -c 0 -i 13 -a 0 -x {1.0 7.0 13 ------- null}
h -t 1.112 -s 1 -d 8 -p cbr -e 1000 -c 0 -i 14 -a 0 -x {1.0 7.0 14 ------- null}
h -t 1.12 -s 1 -d 8 -p cbr -e 1000 -c 0 -i 15 -a 0 -x {1.0 7.0 15 ------- null}
h -t 1.128 -s 1 -d 8 -p cbr -e 1000 -c 0 -i 16 -a 0 -x {1.0 7.0 16 ------- null}
h -t 1.136 -s 1 -d 8 -p cbr -e 1000 -c 0 -i 17 -a 0 -x {1.0 7.0 17 ------- null}
h -t 1.144 -s 1 -d 8 -p cbr -e 1000 -c 0 -i 18 -a 0 -x {1.0 7.0 18 ------- null}
h -t 1.152 -s 1 -d 8 -p cbr -e 1000 -c 0 -i 19 -a 0 -x {1.0 7.0 19 ------- null}
h -t 1.16 -s 1 -d 8 -p cbr -e 1000 -c 0 -i 20 -a 0 -x {1.0 7.0 20 ------- null}
h -t 1.168 -s 1 -d 8 -p cbr -e 1000 -c 0 -i 21 -a 0 -x {1.0 7.0 21 ------- null}
h -t 1.176 -s 1 -d 8 -p cbr -e 1000 -c 0 -i 22 -a 0 -x {1.0 7.0 22 ------- null}
h -t 1.184 -s 1 -d 8 -p cbr -e 1000 -c 0 -i 23 -a 0 -x {1.0 7.0 23 ------- null}
h -t 1.192 -s 1 -d 8 -p cbr -e 1000 -c 0 -i 24 -a 0 -x {1.0 7.0 24 ------- null}
h -t 1.2 -s 1 -d 8 -p cbr -e 1000 -c 0 -i 25 -a 0 -x {1.0 7.0 25 ------- null}
h -t 1.208 -s 1 -d 8 -p cbr -e 1000 -c 0 -i 26 -a 0 -x {1.0 7.0 26 ------- null}
h -t 1.216 -s 1 -d 8 -p cbr -e 1000 -c 0 -i 27 -a 0 -x {1.0 7.0 27 ------- null}
h -t 1.224 -s 1 -d 8 -p cbr -e 1000 -c 0 -i 28 -a 0 -x {1.0 7.0 28 ------- null}
h -t 1.232 -s 1 -d 8 -p cbr -e 1000 -c 0 -i 29 -a 0 -x {1.0 7.0 29 ------- null}
h -t 1.24 -s 1 -d 8 -p cbr -e 1000 -c 0 -i 30 -a 0 -x {1.0 7.0 30 ------- null}
h -t 1.248 -s 1 -d 8 -p cbr -e 1000 -c 0 -i 31 -a 0 -x {1.0 7.0 31 ------- null}
h -t 1.256 -s 1 -d 8 -p cbr -e 1000 -c 0 -i 32 -a 0 -x {1.0 7.0 32 ------- null}
h -t 1.264 -s 1 -d 8 -p cbr -e 1000 -c 0 -i 33 -a 0 -x {1.0 7.0 33 ------- null}
h -t 1.272 -s 1 -d 8 -p cbr -e 1000 -c 0 -i 34 -a 0 -x {1.0 7.0 34 ------- null}
h -t 1.28 -s 1 -d 8 -p cbr -e 1000 -c 0 -i 35 -a 0 -x {1.0 7.0 35 ------- null}
h -t 1.288 -s 1 -d 8 -p cbr -e 1000 -c 0 -i 36 -a 0 -x {1.0 7.0 36 ------- null}
h -t 1.296 -s 1 -d 8 -p cbr -e 1000 -c 0 -i 37 -a 0 -x {1.0 7.0 37 ------- null}
+ -t 1.3 -s 1 -d 8 -p cbr -e 1000 -c 0 -i 0 -a 0 -x {1.0 7.0 0 ------- null}
- -t 1.3 -s 1 -d 8 -p cbr -e 1000 -c 0 -i 0 -a 0 -x {1.0 7.0 0 ------- null}
h -t 1.3 -s 1 -d 8 -p cbr -e 1000 -c 0 -i 0 -a 0 -x {1.0 7.0 -1 ------- null}
h -t 1.304 -s 1 -d 8 -p cbr -e 1000 -c 0 -i 38 -a 0 -x {1.0 7.0 38 ------- null}
+ -t 1.308 -s 1 -d 8 -p cbr -e 1000 -c 0 -i 1 -a 0 -x {1.0 7.0 1 ------- null}
- -t 1.308 -s 1 -d 8 -p cbr -e 1000 -c 0 -i 1 -a 0 -x {1.0 7.0 1 ------- null}
h -t 1.308 -s 1 -d 8 -p cbr -e 1000 -c 0 -i 1 -a 0 -x {1.0 7.0 -1 ------- null}
h -t 1.312 -s 1 -d 8 -p cbr -e 1000 -c 0 -i 39 -a 0 -x {1.0 7.0 39 ------- null}
+ -t 1.316 -s 1 -d 8 -p cbr -e 1000 -c 0 -i 2 -a 0 -x {1.0 7.0 2 ------- null}
- -t 1.316 -s 1 -d 8 -p cbr -e 1000 -c 0 -i 2 -a 0 -x {1.0 7.0 2 ------- null}
h -t 1.316 -s 1 -d 8 -p cbr -e 1000 -c 0 -i 2 -a 0 -x {1.0 7.0 -1 ------- null}
h -t 1.32 -s 1 -d 8 -p cbr -e 1000 -c 0 -i 40 -a 0 -x {1.0 7.0 40 ------- null}
+ -t 1.324 -s 1 -d 8 -p cbr -e 1000 -c 0 -i 3 -a 0 -x {1.0 7.0 3 ------- null}
- -t 1.324 -s 1 -d 8 -p cbr -e 1000 -c 0 -i 3 -a 0 -x {1.0 7.0 3 ------- null}
h -t 1.324 -s 1 -d 8 -p cbr -e 1000 -c 0 -i 3 -a 0 -x {1.0 7.0 -1 ------- null}
h -t 1.328 -s 1 -d 8 -p cbr -e 1000 -c 0 -i 41 -a 0 -x {1.0 7.0 41 ------- null}
+ -t 1.332 -s 1 -d 8 -p cbr -e 1000 -c 0 -i 4 -a 0 -x {1.0 7.0 4 ------- null}
- -t 1.332 -s 1 -d 8 -p cbr -e 1000 -c 0 -i 4 -a 0 -x {1.0 7.0 4 ------- null}
h -t 1.332 -s 1 -d 8 -p cbr -e 1000 -c 0 -i 4 -a 0 -x {1.0 7.0 -1 ------- null}
h -t 1.336 -s 1 -d 8 -p cbr -e 1000 -c 0 -i 42 -a 0 -x {1.0 7.0 42 ------- null}
+ -t 1.34 -s 1 -d 8 -p cbr -e 1000 -c 0 -i 5 -a 0 -x {1.0 7.0 5 ------- null}
- -t 1.34 -s 1 -d 8 -p cbr -e 1000 -c 0 -i 5 -a 0 -x {1.0 7.0 5 ------- null}
h -t 1.34 -s 1 -d 8 -p cbr -e 1000 -c 0 -i 5 -a 0 -x {1.0 7.0 -1 ------- null}
h -t 1.344 -s 1 -d 8 -p cbr -e 1000 -c 0 -i 43 -a 0 -x {1.0 7.0 43 ------- null}
+ -t 1.348 -s 1 -d 8 -p cbr -e 1000 -c 0 -i 6 -a 0 -x {1.0 7.0 6 ------- null}
- -t 1.348 -s 1 -d 8 -p cbr -e 1000 -c 0 -i 6 -a 0 -x {1.0 7.0 6 ------- null}
h -t 1.348 -s 1 -d 8 -p cbr -e 1000 -c 0 -i 6 -a 0 -x {1.0 7.0 -1 ------- null}
h -t 1.352 -s 1 -d 8 -p cbr -e 1000 -c 0 -i 44 -a 0 -x {1.0 7.0 44 ------- null}
+ -t 1.356 -s 1 -d 8 -p cbr -e 1000 -c 0 -i 7 -a 0 -x {1.0 7.0 7 ------- null}
- -t 1.356 -s 1 -d 8 -p cbr -e 1000 -c 0 -i 7 -a 0 -x {1.0 7.0 7 ------- null}
h -t 1.356 -s 1 -d 8 -p cbr -e 1000 -c 0 -i 7 -a 0 -x {1.0 7.0 -1 ------- null}
h -t 1.36 -s 1 -d 8 -p cbr -e 1000 -c 0 -i 45 -a 0 -x {1.0 7.0 45 ------- null}
+ -t 1.364 -s 1 -d 8 -p cbr -e 1000 -c 0 -i 8 -a 0 -x {1.0 7.0 8 ------- null}
- -t 1.364 -s 1 -d 8 -p cbr -e 1000 -c 0 -i 8 -a 0 -x {1.0 7.0 8 ------- null}
h -t 1.364 -s 1 -d 8 -p cbr -e 1000 -c 0 -i 8 -a 0 -x {1.0 7.0 -1 ------- null}
h -t 1.368 -s 1 -d 8 -p cbr -e 1000 -c 0 -i 46 -a 0 -x {1.0 7.0 46 ------- null}
+ -t 1.372 -s 1 -d 8 -p cbr -e 1000 -c 0 -i 9 -a 0 -x {1.0 7.0 9 ------- null}
- -t 1.372 -s 1 -d 8 -p cbr -e 1000 -c 0 -i 9 -a 0 -x {1.0 7.0 9 ------- null}
h -t 1.372 -s 1 -d 8 -p cbr -e 1000 -c 0 -i 9 -a 0 -x {1.0 7.0 -1 ------- null}
h -t 1.376 -s 1 -d 8 -p cbr -e 1000 -c 0 -i 47 -a 0 -x {1.0 7.0 47 ------- null}
+ -t 1.38 -s 1 -d 8 -p cbr -e 1000 -c 0 -i 10 -a 0 -x {1.0 7.0 10 ------- null}
- -t 1.38 -s 1 -d 8 -p cbr -e 1000 -c 0 -i 10 -a 0 -x {1.0 7.0 10 ------- null}
h -t 1.38 -s 1 -d 8 -p cbr -e 1000 -c 0 -i 10 -a 0 -x {1.0 7.0 -1 ------- null}
h -t 1.384 -s 1 -d 8 -p cbr -e 1000 -c 0 -i 48 -a 0 -x {1.0 7.0 48 ------- null}
+ -t 1.388 -s 1 -d 8 -p cbr -e 1000 -c 0 -i 11 -a 0 -x {1.0 7.0 11 ------- null}
- -t 1.388 -s 1 -d 8 -p cbr -e 1000 -c 0 -i 11 -a 0 -x {1.0 7.0 11 ------- null}
h -t 1.388 -s 1 -d 8 -p cbr -e 1000 -c 0 -i 11 -a 0 -x {1.0 7.0 -1 ------- null}
h -t 1.392 -s 1 -d 8 -p cbr -e 1000 -c 0 -i 49 -a 0 -x {1.0 7.0 49 ------- null}
+ -t 1.396 -s 1 -d 8 -p cbr -e 1000 -c 0 -i 12 -a 0 -x {1.0 7.0 12 ------- null}
- -t 1.396 -s 1 -d 8 -p cbr -e 1000 -c 0 -i 12 -a 0 -x {1.0 7.0 12 ------- null}
h -t 1.396 -s 1 -d 8 -p cbr -e 1000 -c 0 -i 12 -a 0 -x {1.0 7.0 -1 ------- null}
h -t 1.4 -s 1 -d 8 -p cbr -e 1000 -c 0 -i 50 -a 0 -x {1.0 7.0 50 ------- null}
+ -t 1.404 -s 1 -d 8 -p cbr -e 1000 -c 0 -i 13 -a 0 -x {1.0 7.0 13 ------- null}
- -t 1.404 -s 1 -d 8 -p cbr -e 1000 -c 0 -i 13 -a 0 -x {1.0 7.0 13 ------- null}
h -t 1.404 -s 1 -d 8 -p cbr -e 1000 -c 0 -i 13 -a 0 -x {1.0 7.0 -1 ------- null}
h -t 1.408 -s 1 -d 8 -p cbr -e 1000 -c 0 -i 51 -a 0 -x {1.0 7.0 51 ------- null}
+ -t 1.412 -s 1 -d 8 -p cbr -e 1000 -c 0 -i 14 -a 0 -x {1.0 7.0 14 ------- null}
- -t 1.412 -s 1 -d 8 -p cbr -e 1000 -c 0 -i 14 -a 0 -x {1.0 7.0 14 ------- null}
h -t 1.412 -s 1 -d 8 -p cbr -e 1000 -c 0 -i 14 -a 0 -x {1.0 7.0 -1 ------- null}
h -t 1.416 -s 1 -d 8 -p cbr -e 1000 -c 0 -i 52 -a 0 -x {1.0 7.0 52 ------- null}
+ -t 1.42 -s 1 -d 8 -p cbr -e 1000 -c 0 -i 15 -a 0 -x {1.0 7.0 15 ------- null}
- -t 1.42 -s 1 -d 8 -p cbr -e 1000 -c 0 -i 15 -a 0 -x {1.0 7.0 15 ------- null}
h -t 1.42 -s 1 -d 8 -p cbr -e 1000 -c 0 -i 15 -a 0 -x {1.0 7.0 -1 ------- null}
h -t 1.424 -s 1 -d 8 -p cbr -e 1000 -c 0 -i 53 -a 0 -x {1.0 7.0 53 ------- null}
+ -t 1.428 -s 1 -d 8 -p cbr -e 1000 -c 0 -i 16 -a 0 -x {1.0 7.0 16 ------- null}
- -t 1.428 -s 1 -d 8 -p cbr -e 1000 -c 0 -i 16 -a 0 -x {1.0 7.0 16 ------- null}
h -t 1.428 -s 1 -d 8 -p cbr -e 1000 -c 0 -i 16 -a 0 -x {1.0 7.0 -1 ------- null}
h -t 1.432 -s 1 -d 8 -p cbr -e 1000 -c 0 -i 54 -a 0 -x {1.0 7.0 54 ------- null}
+ -t 1.436 -s 1 -d 8 -p cbr -e 1000 -c 0 -i 17 -a 0 -x {1.0 7.0 17 ------- null}
- -t 1.436 -s 1 -d 8 -p cbr -e 1000 -c 0 -i 17 -a 0 -x {1.0 7.0 17 ------- null}
h -t 1.436 -s 1 -d 8 -p cbr -e 1000 -c 0 -i 17 -a 0 -x {1.0 7.0 -1 ------- null}
h -t 1.44 -s 1 -d 8 -p cbr -e 1000 -c 0 -i 55 -a 0 -x {1.0 7.0 55 ------- null}
+ -t 1.444 -s 1 -d 8 -p cbr -e 1000 -c 0 -i 18 -a 0 -x {1.0 7.0 18 ------- null}
- -t 1.444 -s 1 -d 8 -p cbr -e 1000 -c 0 -i 18 -a 0 -x {1.0 7.0 18 ------- null}
h -t 1.444 -s 1 -d 8 -p cbr -e 1000 -c 0 -i 18 -a 0 -x {1.0 7.0 -1 ------- null}
h -t 1.448 -s 1 -d 8 -p cbr -e 1000 -c 0 -i 56 -a 0 -x {1.0 7.0 56 ------- null}
+ -t 1.452 -s 1 -d 8 -p cbr -e 1000 -c 0 -i 19 -a 0 -x {1.0 7.0 19 ------- null}
- -t 1.452 -s 1 -d 8 -p cbr -e 1000 -c 0 -i 19 -a 0 -x {1.0 7.0 19 ------- null}
h -t 1.452 -s 1 -d 8 -p cbr -e 1000 -c 0 -i 19 -a 0 -x {1.0 7.0 -1 ------- null}
h -t 1.456 -s 1 -d 8 -p cbr -e 1000 -c 0 -i 57 -a 0 -x {1.0 7.0 57 ------- null}
+ -t 1.46 -s 1 -d 8 -p cbr -e 1000 -c 0 -i 20 -a 0 -x {1.0 7.0 20 ------- null}
- -t 1.46 -s 1 -d 8 -p cbr -e 1000 -c 0 -i 20 -a 0 -x {1.0 7.0 20 ------- null}
h -t 1.46 -s 1 -d 8 -p cbr -e 1000 -c 0 -i 20 -a 0 -x {1.0 7.0 -1 ------- null}
h -t 1.464 -s 1 -d 8 -p cbr -e 1000 -c 0 -i 58 -a 0 -x {1.0 7.0 58 ------- null}
+ -t 1.468 -s 1 -d 8 -p cbr -e 1000 -c 0 -i 21 -a 0 -x {1.0 7.0 21 ------- null}
- -t 1.468 -s 1 -d 8 -p cbr -e 1000 -c 0 -i 21 -a 0 -x {1.0 7.0 21 ------- null}
h -t 1.468 -s 1 -d 8 -p cbr -e 1000 -c 0 -i 21 -a 0 -x {1.0 7.0 -1 ------- null}
h -t 1.472 -s 1 -d 8 -p cbr -e 1000 -c 0 -i 59 -a 0 -x {1.0 7.0 59 ------- null}
+ -t 1.476 -s 1 -d 8 -p cbr -e 1000 -c 0 -i 22 -a 0 -x {1.0 7.0 22 ------- null}
- -t 1.476 -s 1 -d 8 -p cbr -e 1000 -c 0 -i 22 -a 0 -x {1.0 7.0 22 ------- null}
h -t 1.476 -s 1 -d 8 -p cbr -e 1000 -c 0 -i 22 -a 0 -x {1.0 7.0 -1 ------- null}
h -t 1.48 -s 1 -d 8 -p cbr -e 1000 -c 0 -i 60 -a 0 -x {1.0 7.0 60 ------- null}
+ -t 1.484 -s 1 -d 8 -p cbr -e 1000 -c 0 -i 23 -a 0 -x {1.0 7.0 23 ------- null}
- -t 1.484 -s 1 -d 8 -p cbr -e 1000 -c 0 -i 23 -a 0 -x {1.0 7.0 23 ------- null}
h -t 1.484 -s 1 -d 8 -p cbr -e 1000 -c 0 -i 23 -a 0 -x {1.0 7.0 -1 ------- null}
h -t 1.488 -s 1 -d 8 -p cbr -e 1000 -c 0 -i 61 -a 0 -x {1.0 7.0 61 ------- null}
+ -t 1.492 -s 1 -d 8 -p cbr -e 1000 -c 0 -i 24 -a 0 -x {1.0 7.0 24 ------- null}
- -t 1.492 -s 1 -d 8 -p cbr -e 1000 -c 0 -i 24 -a 0 -x {1.0 7.0 24 ------- null}
h -t 1.492 -s 1 -d 8 -p cbr -e 1000 -c 0 -i 24 -a 0 -x {1.0 7.0 -1 ------- null}
h -t 1.496 -s 1 -d 8 -p cbr -e 1000 -c 0 -i 62 -a 0 -x {1.0 7.0 62 ------- null}
+ -t 1.5 -s 1 -d 8 -p cbr -e 1000 -c 0 -i 25 -a 0 -x {1.0 7.0 25 ------- null}
- -t 1.5 -s 1 -d 8 -p cbr -e 1000 -c 0 -i 25 -a 0 -x {1.0 7.0 25 ------- null}
h -t 1.5 -s 1 -d 8 -p cbr -e 1000 -c 0 -i 25 -a 0 -x {1.0 7.0 -1 ------- null}
h -t 1.504 -s 1 -d 8 -p cbr -e 1000 -c 0 -i 63 -a 0 -x {1.0 7.0 63 ------- null}
+ -t 1.508 -s 1 -d 8 -p cbr -e 1000 -c 0 -i 26 -a 0 -x {1.0 7.0 26 ------- null}
- -t 1.508 -s 1 -d 8 -p cbr -e 1000 -c 0 -i 26 -a 0 -x {1.0 7.0 26 ------- null}
h -t 1.508 -s 1 -d 8 -p cbr -e 1000 -c 0 -i 26 -a 0 -x {1.0 7.0 -1 ------- null}
h -t 1.512 -s 1 -d 8 -p cbr -e 1000 -c 0 -i 64 -a 0 -x {1.0 7.0 64 ------- null}
+ -t 1.516 -s 1 -d 8 -p cbr -e 1000 -c 0 -i 27 -a 0 -x {1.0 7.0 27 ------- null}
- -t 1.516 -s 1 -d 8 -p cbr -e 1000 -c 0 -i 27 -a 0 -x {1.0 7.0 27 ------- null}
h -t 1.516 -s 1 -d 8 -p cbr -e 1000 -c 0 -i 27 -a 0 -x {1.0 7.0 -1 ------- null}
h -t 1.52 -s 1 -d 8 -p cbr -e 1000 -c 0 -i 65 -a 0 -x {1.0 7.0 65 ------- null}
+ -t 1.524 -s 1 -d 8 -p cbr -e 1000 -c 0 -i 28 -a 0 -x {1.0 7.0 28 ------- null}
- -t 1.524 -s 1 -d 8 -p cbr -e 1000 -c 0 -i 28 -a 0 -x {1.0 7.0 28 ------- null}
h -t 1.524 -s 1 -d 8 -p cbr -e 1000 -c 0 -i 28 -a 0 -x {1.0 7.0 -1 ------- null}
h -t 1.528 -s 1 -d 8 -p cbr -e 1000 -c 0 -i 66 -a 0 -x {1.0 7.0 66 ------- null}
+ -t 1.532 -s 1 -d 8 -p cbr -e 1000 -c 0 -i 29 -a 0 -x {1.0 7.0 29 ------- null}
- -t 1.532 -s 1 -d 8 -p cbr -e 1000 -c 0 -i 29 -a 0 -x {1.0 7.0 29 ------- null}
h -t 1.532 -s 1 -d 8 -p cbr -e 1000 -c 0 -i 29 -a 0 -x {1.0 7.0 -1 ------- null}
h -t 1.536 -s 1 -d 8 -p cbr -e 1000 -c 0 -i 67 -a 0 -x {1.0 7.0 67 ------- null}
+ -t 1.54 -s 1 -d 8 -p cbr -e 1000 -c 0 -i 30 -a 0 -x {1.0 7.0 30 ------- null}
- -t 1.54 -s 1 -d 8 -p cbr -e 1000 -c 0 -i 30 -a 0 -x {1.0 7.0 30 ------- null}
h -t 1.54 -s 1 -d 8 -p cbr -e 1000 -c 0 -i 30 -a 0 -x {1.0 7.0 -1 ------- null}
h -t 1.544 -s 1 -d 8 -p cbr -e 1000 -c 0 -i 68 -a 0 -x {1.0 7.0 68 ------- null}
+ -t 1.548 -s 1 -d 8 -p cbr -e 1000 -c 0 -i 31 -a 0 -x {1.0 7.0 31 ------- null}
- -t 1.548 -s 1 -d 8 -p cbr -e 1000 -c 0 -i 31 -a 0 -x {1.0 7.0 31 ------- null}
h -t 1.548 -s 1 -d 8 -p cbr -e 1000 -c 0 -i 31 -a 0 -x {1.0 7.0 -1 ------- null}
h -t 1.552 -s 1 -d 8 -p cbr -e 1000 -c 0 -i 69 -a 0 -x {1.0 7.0 69 ------- null}
+ -t 1.556 -s 1 -d 8 -p cbr -e 1000 -c 0 -i 32 -a 0 -x {1.0 7.0 32 ------- null}
- -t 1.556 -s 1 -d 8 -p cbr -e 1000 -c 0 -i 32 -a 0 -x {1.0 7.0 32 ------- null}
h -t 1.556 -s 1 -d 8 -p cbr -e 1000 -c 0 -i 32 -a 0 -x {1.0 7.0 -1 ------- null}
h -t 1.56 -s 1 -d 8 -p cbr -e 1000 -c 0 -i 70 -a 0 -x {1.0 7.0 70 ------- null}
+ -t 1.564 -s 1 -d 8 -p cbr -e 1000 -c 0 -i 33 -a 0 -x {1.0 7.0 33 ------- null}
- -t 1.564 -s 1 -d 8 -p cbr -e 1000 -c 0 -i 33 -a 0 -x {1.0 7.0 33 ------- null}
h -t 1.564 -s 1 -d 8 -p cbr -e 1000 -c 0 -i 33 -a 0 -x {1.0 7.0 -1 ------- null}
h -t 1.568 -s 1 -d 8 -p cbr -e 1000 -c 0 -i 71 -a 0 -x {1.0 7.0 71 ------- null}
+ -t 1.572 -s 1 -d 8 -p cbr -e 1000 -c 0 -i 34 -a 0 -x {1.0 7.0 34 ------- null}
- -t 1.572 -s 1 -d 8 -p cbr -e 1000 -c 0 -i 34 -a 0 -x {1.0 7.0 34 ------- null}
h -t 1.572 -s 1 -d 8 -p cbr -e 1000 -c 0 -i 34 -a 0 -x {1.0 7.0 -1 ------- null}
h -t 1.576 -s 1 -d 8 -p cbr -e 1000 -c 0 -i 72 -a 0 -x {1.0 7.0 72 ------- null}
+ -t 1.58 -s 1 -d 8 -p cbr -e 1000 -c 0 -i 35 -a 0 -x {1.0 7.0 35 ------- null}
- -t 1.58 -s 1 -d 8 -p cbr -e 1000 -c 0 -i 35 -a 0 -x {1.0 7.0 35 ------- null}
h -t 1.58 -s 1 -d 8 -p cbr -e 1000 -c 0 -i 35 -a 0 -x {1.0 7.0 -1 ------- null}
h -t 1.584 -s 1 -d 8 -p cbr -e 1000 -c 0 -i 73 -a 0 -x {1.0 7.0 73 ------- null}
+ -t 1.588 -s 1 -d 8 -p cbr -e 1000 -c 0 -i 36 -a 0 -x {1.0 7.0 36 ------- null}
- -t 1.588 -s 1 -d 8 -p cbr -e 1000 -c 0 -i 36 -a 0 -x {1.0 7.0 36 ------- null}
h -t 1.588 -s 1 -d 8 -p cbr -e 1000 -c 0 -i 36 -a 0 -x {1.0 7.0 -1 ------- null}
h -t 1.592 -s 1 -d 8 -p cbr -e 1000 -c 0 -i 74 -a 0 -x {1.0 7.0 74 ------- null}
+ -t 1.596 -s 1 -d 8 -p cbr -e 1000 -c 0 -i 37 -a 0 -x {1.0 7.0 37 ------- null}
- -t 1.596 -s 1 -d 8 -p cbr -e 1000 -c 0 -i 37 -a 0 -x {1.0 7.0 37 ------- null}
h -t 1.596 -s 1 -d 8 -p cbr -e 1000 -c 0 -i 37 -a 0 -x {1.0 7.0 -1 ------- null}
h -t 1.6 -s 1 -d 8 -p cbr -e 1000 -c 0 -i 75 -a 0 -x {1.0 7.0 75 ------- null}
r -t 1.60008512 -s 8 -d 3 -p cbr -e 1000 -c 0 -i 0 -a 0 -x {1.0 7.0 0 ------- null}
d -t 1.60008512 -s 3 -d 4 -p cbr -e 1000 -c 0 -i 0 -a 0 -x {1.0 7.0 0 ------- null}
+ -t 1.604 -s 1 -d 8 -p cbr -e 1000 -c 0 -i 38 -a 0 -x {1.0 7.0 38 ------- null}
- -t 1.604 -s 1 -d 8 -p cbr -e 1000 -c 0 -i 38 -a 0 -x {1.0 7.0 38 ------- null}
h -t 1.604 -s 1 -d 8 -p cbr -e 1000 -c 0 -i 38 -a 0 -x {1.0 7.0 -1 ------- null}
h -t 1.608 -s 1 -d 8 -p cbr -e 1000 -c 0 -i 76 -a 0 -x {1.0 7.0 76 ------- null}
r -t 1.60808512 -s 8 -d 3 -p cbr -e 1000 -c 0 -i 1 -a 0 -x {1.0 7.0 1 ------- null}
+ -t 1.60808512 -s 3 -d 4 -p cbr -e 1000 -c 0 -i 1 -a 0 -x {1.0 7.0 1 ------- null}
- -t 1.60808512 -s 3 -d 4 -p cbr -e 1000 -c 0 -i 1 -a 0 -x {1.0 7.0 1 ------- null}
h -t 1.60808512 -s 3 -d 4 -p cbr -e 1000 -c 0 -i 1 -a 0 -x {1.0 7.0 -1 ------- null}
+ -t 1.612 -s 1 -d 8 -p cbr -e 1000 -c 0 -i 39 -a 0 -x {1.0 7.0 39 ------- null}
- -t 1.612 -s 1 -d 8 -p cbr -e 1000 -c 0 -i 39 -a 0 -x {1.0 7.0 39 ------- null}
h -t 1.612 -s 1 -d 8 -p cbr -e 1000 -c 0 -i 39 -a 0 -x {1.0 7.0 -1 ------- null}
h -t 1.616 -s 1 -d 8 -p cbr -e 1000 -c 0 -i 77 -a 0 -x {1.0 7.0 77 ------- null}
r -t 1.61608512 -s 8 -d 3 -p cbr -e 1000 -c 0 -i 2 -a 0 -x {1.0 7.0 2 ------- null}
d -t 1.61608512 -s 3 -d 4 -p cbr -e 1000 -c 0 -i 2 -a 0 -x {1.0 7.0 2 ------- null}
r -t 1.61816512 -s 3 -d 4 -p cbr -e 1000 -c 0 -i 1 -a 0 -x {1.0 7.0 1 ------- null}
h -t 1.61816512 -s 4 -d 9 -p cbr -e 1000 -c 0 -i 1 -a 0 -x {1.0 7.0 1 ------- null}
+ -t 1.62 -s 1 -d 8 -p cbr -e 1000 -c 0 -i 40 -a 0 -x {1.0 7.0 40 ------- null}
- -t 1.62 -s 1 -d 8 -p cbr -e 1000 -c 0 -i 40 -a 0 -x {1.0 7.0 40 ------- null}
h -t 1.62 -s 1 -d 8 -p cbr -e 1000 -c 0 -i 40 -a 0 -x {1.0 7.0 -1 ------- null}
h -t 1.624 -s 1 -d 8 -p cbr -e 1000 -c 0 -i 78 -a 0 -x {1.0 7.0 78 ------- null}
r -t 1.62408512 -s 8 -d 3 -p cbr -e 1000 -c 0 -i 3 -a 0 -x {1.0 7.0 3 ------- null}
d -t 1.62408512 -s 3 -d 4 -p cbr -e 1000 -c 0 -i 3 -a 0 -x {1.0 7.0 3 ------- null}
+ -t 1.628 -s 1 -d 8 -p cbr -e 1000 -c 0 -i 41 -a 0 -x {1.0 7.0 41 ------- null}
- -t 1.628 -s 1 -d 8 -p cbr -e 1000 -c 0 -i 41 -a 0 -x {1.0 7.0 41 ------- null}
h -t 1.628 -s 1 -d 8 -p cbr -e 1000 -c 0 -i 41 -a 0 -x {1.0 7.0 -1 ------- null}
h -t 1.632 -s 1 -d 8 -p cbr -e 1000 -c 0 -i 79 -a 0 -x {1.0 7.0 79 ------- null}
r -t 1.63208512 -s 8 -d 3 -p cbr -e 1000 -c 0 -i 4 -a 0 -x {1.0 7.0 4 ------- null}
d -t 1.63208512 -s 3 -d 4 -p cbr -e 1000 -c 0 -i 4 -a 0 -x {1.0 7.0 4 ------- null}
+ -t 1.636 -s 1 -d 8 -p cbr -e 1000 -c 0 -i 42 -a 0 -x {1.0 7.0 42 ------- null}
- -t 1.636 -s 1 -d 8 -p cbr -e 1000 -c 0 -i 42 -a 0 -x {1.0 7.0 42 ------- null}
h -t 1.636 -s 1 -d 8 -p cbr -e 1000 -c 0 -i 42 -a 0 -x {1.0 7.0 -1 ------- null}
h -t 1.64 -s 1 -d 8 -p cbr -e 1000 -c 0 -i 80 -a 0 -x {1.0 7.0 80 ------- null}
r -t 1.64008512 -s 8 -d 3 -p cbr -e 1000 -c 0 -i 5 -a 0 -x {1.0 7.0 5 ------- null}
+ -t 1.64008512 -s 3 -d 4 -p cbr -e 1000 -c 0 -i 5 -a 0 -x {1.0 7.0 5 ------- null}
- -t 1.64008512 -s 3 -d 4 -p cbr -e 1000 -c 0 -i 5 -a 0 -x {1.0 7.0 5 ------- null}
h -t 1.64008512 -s 3 -d 4 -p cbr -e 1000 -c 0 -i 5 -a 0 -x {1.0 7.0 -1 ------- null}
+ -t 1.644 -s 1 -d 8 -p cbr -e 1000 -c 0 -i 43 -a 0 -x {1.0 7.0 43 ------- null}
- -t 1.644 -s 1 -d 8 -p cbr -e 1000 -c 0 -i 43 -a 0 -x {1.0 7.0 43 ------- null}
h -t 1.644 -s 1 -d 8 -p cbr -e 1000 -c 0 -i 43 -a 0 -x {1.0 7.0 -1 ------- null}
h -t 1.648 -s 1 -d 8 -p cbr -e 1000 -c 0 -i 81 -a 0 -x {1.0 7.0 81 ------- null}
r -t 1.64808512 -s 8 -d 3 -p cbr -e 1000 -c 0 -i 6 -a 0 -x {1.0 7.0 6 ------- null}
d -t 1.64808512 -s 3 -d 4 -p cbr -e 1000 -c 0 -i 6 -a 0 -x {1.0 7.0 6 ------- null}
r -t 1.65016512 -s 3 -d 4 -p cbr -e 1000 -c 0 -i 5 -a 0 -x {1.0 7.0 5 ------- null}
h -t 1.65016512 -s 4 -d 9 -p cbr -e 1000 -c 0 -i 5 -a 0 -x {1.0 7.0 5 ------- null}
+ -t 1.652 -s 1 -d 8 -p cbr -e 1000 -c 0 -i 44 -a 0 -x {1.0 7.0 44 ------- null}
- -t 1.652 -s 1 -d 8 -p cbr -e 1000 -c 0 -i 44 -a 0 -x {1.0 7.0 44 ------- null}
h -t 1.652 -s 1 -d 8 -p cbr -e 1000 -c 0 -i 44 -a 0 -x {1.0 7.0 -1 ------- null}
h -t 1.656 -s 1 -d 8 -p cbr -e 1000 -c 0 -i 82 -a 0 -x {1.0 7.0 82 ------- null}
r -t 1.65608512 -s 8 -d 3 -p cbr -e 1000 -c 0 -i 7 -a 0 -x {1.0 7.0 7 ------- null}
+ -t 1.65608512 -s 3 -d 4 -p cbr -e 1000 -c 0 -i 7 -a 0 -x {1.0 7.0 7 ------- null}
- -t 1.65608512 -s 3 -d 4 -p cbr -e 1000 -c 0 -i 7 -a 0 -x {1.0 7.0 7 ------- null}
h -t 1.65608512 -s 3 -d 4 -p cbr -e 1000 -c 0 -i 7 -a 0 -x {1.0 7.0 -1 ------- null}
+ -t 1.66 -s 1 -d 8 -p cbr -e 1000 -c 0 -i 45 -a 0 -x {1.0 7.0 45 ------- null}
- -t 1.66 -s 1 -d 8 -p cbr -e 1000 -c 0 -i 45 -a 0 -x {1.0 7.0 45 ------- null}
h -t 1.66 -s 1 -d 8 -p cbr -e 1000 -c 0 -i 45 -a 0 -x {1.0 7.0 -1 ------- null}
h -t 1.664 -s 1 -d 8 -p cbr -e 1000 -c 0 -i 83 -a 0 -x {1.0 7.0 83 ------- null}
r -t 1.66408512 -s 8 -d 3 -p cbr -e 1000 -c 0 -i 8 -a 0 -x {1.0 7.0 8 ------- null}
d -t 1.66408512 -s 3 -d 4 -p cbr -e 1000 -c 0 -i 8 -a 0 -x {1.0 7.0 8 ------- null}
r -t 1.66616512 -s 3 -d 4 -p cbr -e 1000 -c 0 -i 7 -a 0 -x {1.0 7.0 7 ------- null}
h -t 1.66616512 -s 4 -d 9 -p cbr -e 1000 -c 0 -i 7 -a 0 -x {1.0 7.0 7 ------- null}
+ -t 1.668 -s 1 -d 8 -p cbr -e 1000 -c 0 -i 46 -a 0 -x {1.0 7.0 46 ------- null}
- -t 1.668 -s 1 -d 8 -p cbr -e 1000 -c 0 -i 46 -a 0 -x {1.0 7.0 46 ------- null}
h -t 1.668 -s 1 -d 8 -p cbr -e 1000 -c 0 -i 46 -a 0 -x {1.0 7.0 -1 ------- null}
h -t 1.672 -s 1 -d 8 -p cbr -e 1000 -c 0 -i 84 -a 0 -x {1.0 7.0 84 ------- null}
r -t 1.67208512 -s 8 -d 3 -p cbr -e 1000 -c 0 -i 9 -a 0 -x {1.0 7.0 9 ------- null}
+ -t 1.67208512 -s 3 -d 4 -p cbr -e 1000 -c 0 -i 9 -a 0 -x {1.0 7.0 9 ------- null}
- -t 1.67208512 -s 3 -d 4 -p cbr -e 1000 -c 0 -i 9 -a 0 -x {1.0 7.0 9 ------- null}
h -t 1.67208512 -s 3 -d 4 -p cbr -e 1000 -c 0 -i 9 -a 0 -x {1.0 7.0 -1 ------- null}
+ -t 1.676 -s 1 -d 8 -p cbr -e 1000 -c 0 -i 47 -a 0 -x {1.0 7.0 47 ------- null}
- -t 1.676 -s 1 -d 8 -p cbr -e 1000 -c 0 -i 47 -a 0 -x {1.0 7.0 47 ------- null}
h -t 1.676 -s 1 -d 8 -p cbr -e 1000 -c 0 -i 47 -a 0 -x {1.0 7.0 -1 ------- null}
h -t 1.68 -s 1 -d 8 -p cbr -e 1000 -c 0 -i 85 -a 0 -x {1.0 7.0 85 ------- null}
r -t 1.68008512 -s 8 -d 3 -p cbr -e 1000 -c 0 -i 10 -a 0 -x {1.0 7.0 10 ------- null}
d -t 1.68008512 -s 3 -d 4 -p cbr -e 1000 -c 0 -i 10 -a 0 -x {1.0 7.0 10 ------- null}
r -t 1.68216512 -s 3 -d 4 -p cbr -e 1000 -c 0 -i 9 -a 0 -x {1.0 7.0 9 ------- null}
h -t 1.68216512 -s 4 -d 9 -p cbr -e 1000 -c 0 -i 9 -a 0 -x {1.0 7.0 9 ------- null}
+ -t 1.684 -s 1 -d 8 -p cbr -e 1000 -c 0 -i 48 -a 0 -x {1.0 7.0 48 ------- null}
- -t 1.684 -s 1 -d 8 -p cbr -e 1000 -c 0 -i 48 -a 0 -x {1.0 7.0 48 ------- null}
h -t 1.684 -s 1 -d 8 -p cbr -e 1000 -c 0 -i 48 -a 0 -x {1.0 7.0 -1 ------- null}
h -t 1.688 -s 1 -d 8 -p cbr -e 1000 -c 0 -i 86 -a 0 -x {1.0 7.0 86 ------- null}
r -t 1.68808512 -s 8 -d 3 -p cbr -e 1000 -c 0 -i 11 -a 0 -x {1.0 7.0 11 ------- null}
+ -t 1.68808512 -s 3 -d 4 -p cbr -e 1000 -c 0 -i 11 -a 0 -x {1.0 7.0 11 ------- null}
- -t 1.68808512 -s 3 -d 4 -p cbr -e 1000 -c 0 -i 11 -a 0 -x {1.0 7.0 11 ------- null}
h -t 1.68808512 -s 3 -d 4 -p cbr -e 1000 -c 0 -i 11 -a 0 -x {1.0 7.0 -1 ------- null}
+ -t 1.692 -s 1 -d 8 -p cbr -e 1000 -c 0 -i 49 -a 0 -x {1.0 7.0 49 ------- null}
- -t 1.692 -s 1 -d 8 -p cbr -e 1000 -c 0 -i 49 -a 0 -x {1.0 7.0 49 ------- null}
h -t 1.692 -s 1 -d 8 -p cbr -e 1000 -c 0 -i 49 -a 0 -x {1.0 7.0 -1 ------- null}
h -t 1.696 -s 1 -d 8 -p cbr -e 1000 -c 0 -i 87 -a 0 -x {1.0 7.0 87 ------- null}
r -t 1.69608512 -s 8 -d 3 -p cbr -e 1000 -c 0 -i 12 -a 0 -x {1.0 7.0 12 ------- null}
d -t 1.69608512 -s 3 -d 4 -p cbr -e 1000 -c 0 -i 12 -a 0 -x {1.0 7.0 12 ------- null}
r -t 1.69816512 -s 3 -d 4 -p cbr -e 1000 -c 0 -i 11 -a 0 -x {1.0 7.0 11 ------- null}
h -t 1.69816512 -s 4 -d 9 -p cbr -e 1000 -c 0 -i 11 -a 0 -x {1.0 7.0 11 ------- null}
+ -t 1.7 -s 1 -d 8 -p cbr -e 1000 -c 0 -i 50 -a 0 -x {1.0 7.0 50 ------- null}
- -t 1.7 -s 1 -d 8 -p cbr -e 1000 -c 0 -i 50 -a 0 -x {1.0 7.0 50 ------- null}
h -t 1.7 -s 1 -d 8 -p cbr -e 1000 -c 0 -i 50 -a 0 -x {1.0 7.0 -1 ------- null}
h -t 1.704 -s 1 -d 8 -p cbr -e 1000 -c 0 -i 88 -a 0 -x {1.0 7.0 88 ------- null}
r -t 1.70408512 -s 8 -d 3 -p cbr -e 1000 -c 0 -i 13 -a 0 -x {1.0 7.0 13 ------- null}
d -t 1.70408512 -s 3 -d 4 -p cbr -e 1000 -c 0 -i 13 -a 0 -x {1.0 7.0 13 ------- null}
+ -t 1.708 -s 1 -d 8 -p cbr -e 1000 -c 0 -i 51 -a 0 -x {1.0 7.0 51 ------- null}
- -t 1.708 -s 1 -d 8 -p cbr -e 1000 -c 0 -i 51 -a 0 -x {1.0 7.0 51 ------- null}
h -t 1.708 -s 1 -d 8 -p cbr -e 1000 -c 0 -i 51 -a 0 -x {1.0 7.0 -1 ------- null}
h -t 1.712 -s 1 -d 8 -p cbr -e 1000 -c 0 -i 89 -a 0 -x {1.0 7.0 89 ------- null}
r -t 1.71208512 -s 8 -d 3 -p cbr -e 1000 -c 0 -i 14 -a 0 -x {1.0 7.0 14 ------- null}
+ -t 1.71208512 -s 3 -d 4 -p cbr -e 1000 -c 0 -i 14 -a 0 -x {1.0 7.0 14 ------- null}
- -t 1.71208512 -s 3 -d 4 -p cbr -e 1000 -c 0 -i 14 -a 0 -x {1.0 7.0 14 ------- null}
h -t 1.71208512 -s 3 -d 4 -p cbr -e 1000 -c 0 -i 14 -a 0 -x {1.0 7.0 -1 ------- null}
+ -t 1.716 -s 1 -d 8 -p cbr -e 1000 -c 0 -i 52 -a 0 -x {1.0 7.0 52 ------- null}
- -t 1.716 -s 1 -d 8 -p cbr -e 1000 -c 0 -i 52 -a 0 -x {1.0 7.0 52 ------- null}
h -t 1.716 -s 1 -d 8 -p cbr -e 1000 -c 0 -i 52 -a 0 -x {1.0 7.0 -1 ------- null}
h -t 1.72 -s 1 -d 8 -p cbr -e 1000 -c 0 -i 90 -a 0 -x {1.0 7.0 90 ------- null}
r -t 1.72008512 -s 8 -d 3 -p cbr -e 1000 -c 0 -i 15 -a 0 -x {1.0 7.0 15 ------- null}
d -t 1.72008512 -s 3 -d 4 -p cbr -e 1000 -c 0 -i 15 -a 0 -x {1.0 7.0 15 ------- null}
r -t 1.72216512 -s 3 -d 4 -p cbr -e 1000 -c 0 -i 14 -a 0 -x {1.0 7.0 14 ------- null}
h -t 1.72216512 -s 4 -d 9 -p cbr -e 1000 -c 0 -i 14 -a 0 -x {1.0 7.0 14 ------- null}
+ -t 1.724 -s 1 -d 8 -p cbr -e 1000 -c 0 -i 53 -a 0 -x {1.0 7.0 53 ------- null}
- -t 1.724 -s 1 -d 8 -p cbr -e 1000 -c 0 -i 53 -a 0 -x {1.0 7.0 53 ------- null}
h -t 1.724 -s 1 -d 8 -p cbr -e 1000 -c 0 -i 53 -a 0 -x {1.0 7.0 -1 ------- null}
h -t 1.728 -s 1 -d 8 -p cbr -e 1000 -c 0 -i 91 -a 0 -x {1.0 7.0 91 ------- null}
r -t 1.72808512 -s 8 -d 3 -p cbr -e 1000 -c 0 -i 16 -a 0 -x {1.0 7.0 16 ------- null}
+ -t 1.72808512 -s 3 -d 4 -p cbr -e 1000 -c 0 -i 16 -a 0 -x {1.0 7.0 16 ------- null}
- -t 1.72808512 -s 3 -d 4 -p cbr -e 1000 -c 0 -i 16 -a 0 -x {1.0 7.0 16 ------- null}
h -t 1.72808512 -s 3 -d 4 -p cbr -e 1000 -c 0 -i 16 -a 0 -x {1.0 7.0 -1 ------- null}
+ -t 1.732 -s 1 -d 8 -p cbr -e 1000 -c 0 -i 54 -a 0 -x {1.0 7.0 54 ------- null}
- -t 1.732 -s 1 -d 8 -p cbr -e 1000 -c 0 -i 54 -a 0 -x {1.0 7.0 54 ------- null}
h -t 1.732 -s 1 -d 8 -p cbr -e 1000 -c 0 -i 54 -a 0 -x {1.0 7.0 -1 ------- null}
h -t 1.736 -s 1 -d 8 -p cbr -e 1000 -c 0 -i 92 -a 0 -x {1.0 7.0 92 ------- null}
r -t 1.73608512 -s 8 -d 3 -p cbr -e 1000 -c 0 -i 17 -a 0 -x {1.0 7.0 17 ------- null}
d -t 1.73608512 -s 3 -d 4 -p cbr -e 1000 -c 0 -i 17 -a 0 -x {1.0 7.0 17 ------- null}
r -t 1.73816512 -s 3 -d 4 -p cbr -e 1000 -c 0 -i 16 -a 0 -x {1.0 7.0 16 ------- null}
h -t 1.73816512 -s 4 -d 9 -p cbr -e 1000 -c 0 -i 16 -a 0 -x {1.0 7.0 16 ------- null}
+ -t 1.74 -s 1 -d 8 -p cbr -e 1000 -c 0 -i 55 -a 0 -x {1.0 7.0 55 ------- null}
- -t 1.74 -s 1 -d 8 -p cbr -e 1000 -c 0 -i 55 -a 0 -x {1.0 7.0 55 ------- null}
h -t 1.74 -s 1 -d 8 -p cbr -e 1000 -c 0 -i 55 -a 0 -x {1.0 7.0 -1 ------- null}
h -t 1.744 -s 1 -d 8 -p cbr -e 1000 -c 0 -i 93 -a 0 -x {1.0 7.0 93 ------- null}
r -t 1.74408512 -s 8 -d 3 -p cbr -e 1000 -c 0 -i 18 -a 0 -x {1.0 7.0 18 ------- null}
d -t 1.74408512 -s 3 -d 4 -p cbr -e 1000 -c 0 -i 18 -a 0 -x {1.0 7.0 18 ------- null}
+ -t 1.748 -s 1 -d 8 -p cbr -e 1000 -c 0 -i 56 -a 0 -x {1.0 7.0 56 ------- null}
- -t 1.748 -s 1 -d 8 -p cbr -e 1000 -c 0 -i 56 -a 0 -x {1.0 7.0 56 ------- null}
h -t 1.748 -s 1 -d 8 -p cbr -e 1000 -c 0 -i 56 -a 0 -x {1.0 7.0 -1 ------- null}
h -t 1.752 -s 1 -d 8 -p cbr -e 1000 -c 0 -i 94 -a 0 -x {1.0 7.0 94 ------- null}
r -t 1.75208512 -s 8 -d 3 -p cbr -e 1000 -c 0 -i 19 -a 0 -x {1.0 7.0 19 ------- null}
d -t 1.75208512 -s 3 -d 4 -p cbr -e 1000 -c 0 -i 19 -a 0 -x {1.0 7.0 19 ------- null}
+ -t 1.756 -s 1 -d 8 -p cbr -e 1000 -c 0 -i 57 -a 0 -x {1.0 7.0 57 ------- null}
- -t 1.756 -s 1 -d 8 -p cbr -e 1000 -c 0 -i 57 -a 0 -x {1.0 7.0 57 ------- null}
h -t 1.756 -s 1 -d 8 -p cbr -e 1000 -c 0 -i 57 -a 0 -x {1.0 7.0 -1 ------- null}
h -t 1.76 -s 1 -d 8 -p cbr -e 1000 -c 0 -i 95 -a 0 -x {1.0 7.0 95 ------- null}
r -t 1.76008512 -s 8 -d 3 -p cbr -e 1000 -c 0 -i 20 -a 0 -x {1.0 7.0 20 ------- null}
+ -t 1.76008512 -s 3 -d 4 -p cbr -e 1000 -c 0 -i 20 -a 0 -x {1.0 7.0 20 ------- null}
- -t 1.76008512 -s 3 -d 4 -p cbr -e 1000 -c 0 -i 20 -a 0 -x {1.0 7.0 20 ------- null}
h -t 1.76008512 -s 3 -d 4 -p cbr -e 1000 -c 0 -i 20 -a 0 -x {1.0 7.0 -1 ------- null}
+ -t 1.764 -s 1 -d 8 -p cbr -e 1000 -c 0 -i 58 -a 0 -x {1.0 7.0 58 ------- null}
- -t 1.764 -s 1 -d 8 -p cbr -e 1000 -c 0 -i 58 -a 0 -x {1.0 7.0 58 ------- null}
h -t 1.764 -s 1 -d 8 -p cbr -e 1000 -c 0 -i 58 -a 0 -x {1.0 7.0 -1 ------- null}
h -t 1.768 -s 1 -d 8 -p cbr -e 1000 -c 0 -i 96 -a 0 -x {1.0 7.0 96 ------- null}
r -t 1.76808512 -s 8 -d 3 -p cbr -e 1000 -c 0 -i 21 -a 0 -x {1.0 7.0 21 ------- null}
d -t 1.76808512 -s 3 -d 4 -p cbr -e 1000 -c 0 -i 21 -a 0 -x {1.0 7.0 21 ------- null}
r -t 1.77016512 -s 3 -d 4 -p cbr -e 1000 -c 0 -i 20 -a 0 -x {1.0 7.0 20 ------- null}
h -t 1.77016512 -s 4 -d 9 -p cbr -e 1000 -c 0 -i 20 -a 0 -x {1.0 7.0 20 ------- null}
+ -t 1.772 -s 1 -d 8 -p cbr -e 1000 -c 0 -i 59 -a 0 -x {1.0 7.0 59 ------- null}
- -t 1.772 -s 1 -d 8 -p cbr -e 1000 -c 0 -i 59 -a 0 -x {1.0 7.0 59 ------- null}
h -t 1.772 -s 1 -d 8 -p cbr -e 1000 -c 0 -i 59 -a 0 -x {1.0 7.0 -1 ------- null}
h -t 1.776 -s 1 -d 8 -p cbr -e 1000 -c 0 -i 97 -a 0 -x {1.0 7.0 97 ------- null}
r -t 1.77608512 -s 8 -d 3 -p cbr -e 1000 -c 0 -i 22 -a 0 -x {1.0 7.0 22 ------- null}
d -t 1.77608512 -s 3 -d 4 -p cbr -e 1000 -c 0 -i 22 -a 0 -x {1.0 7.0 22 ------- null}
+ -t 1.78 -s 1 -d 8 -p cbr -e 1000 -c 0 -i 60 -a 0 -x {1.0 7.0 60 ------- null}