h 1 1 8 cbr 1000 ------- 0 1.0 7.0 0 0
h 1.008 1 8 cbr 1000 ------- 0 1.0 7.0 1 1
h 1.016 1 8 cbr 1000 ------- 0 1.0 7.0 2 2
h 1.024 1 8 cbr 1000 ------- 0 1.0 7.0 3 3
h 1.032 1 8 cbr 1000 ------- 0 1.0 7.0 4 4
h 1.04 1 8 cbr 1000 ------- 0 1.0 7.0 5 5
h 1.048 1 8 cbr 1000 ------- 0 1.0 7.0 6 6
h 1.056 1 8 cbr 1000 ------- 0 1.0 7.0 7 7
h 1.064 1 8 cbr 1000 ------- 0 1.0 7.0 8 8
h 1.072 1 8 cbr 1000 ------- 0 1.0 7.0 9 9
h 1.08 1 8 cbr 1000 ------- 0 1.0 7.0 10 10
h 1.088 1 8 cbr 1000 ------- 0 1.0 7.0 11 11
h 1.096 1 8 cbr 1000 ------- 0 1.0 7.0 12 12
h 1.104 1 8 cbr 1000 ------- 0 1.0 7.0 13 13
h 1.112 1 8 cbr 1000 ------- 0 1.0 7.0 14 14
h 1.12 1 8 cbr 1000 ------- 0 1.0 7.0 15 15
h 1.128 1 8 cbr 1000 ------- 0 1.0 7.0 16 16
h 1.136 1 8 cbr 1000 ------- 0 1.0 7.0 17 17
h 1.144 1 8 cbr 1000 ------- 0 1.0 7.0 18 18
h 1.152 1 8 cbr 1000 ------- 0 1.0 7.0 19 19
h 1.16 1 8 cbr 1000 ------- 0 1.0 7.0 20 20
h 1.168 1 8 cbr 1000 ------- 0 1.0 7.0 21 21
h 1.176 1 8 cbr 1000 ------- 0 1.0 7.0 22 22
h 1.184 1 8 cbr 1000 ------- 0 1.0 7.0 23 23
h 1.192 1 8 cbr 1000 ------- 0 1.0 7.0 24 24
h 1.2 1 8 cbr 1000 ------- 0 1.0 7.0 25 25
h 1.208 1 8 cbr 1000 ------- 0 1.0 7.0 26 26
h 1.216 1 8 cbr 1000 ------- 0 1.0 7.0 27 27
h 1.224 1 8 cbr 1000 ------- 0 1.0 7.0 28 28
h 1.232 1 8 cbr 1000 ------- 0 1.0 7.0 29 29
h 1.24 1 8 cbr 1000 ------- 0 1.0 7.0 30 30
h 1.248 1 8 cbr 1000 ------- 0 1.0 7.0 31 31
h 1.256 1 8 cbr 1000 ------- 0 1.0 7.0 32 32
h 1.264 1 8 cbr 1000 ------- 0 1.0 7.0 33 33
h 1.272 1 8 cbr 1000 ------- 0 1.0 7.0 34 34
h 1.28 1 8 cbr 1000 ------- 0 1.0 7.0 35 35
h 1.288 1 8 cbr 1000 ------- 0 1.0 7.0 36 36
h 1.296 1 8 cbr 1000 ------- 0 1.0 7.0 37 37
+ 1.3 1 8 cbr 1000 ------- 0 1.0 7.0 0 0
- 1.3 1 8 cbr 1000 ------- 0 1.0 7.0 0 0
h 1.304 1 8 cbr 1000 ------- 0 1.0 7.0 38 38
+ 1.308 1 8 cbr 1000 ------- 0 1.0 7.0 1 1
- 1.308 1 8 cbr 1000 ------- 0 1.0 7.0 1 1
h 1.312 1 8 cbr 1000 ------- 0 1.0 7.0 39 39
+ 1.316 1 8 cbr 1000 ------- 0 1.0 7.0 2 2
- 1.316 1 8 cbr 1000 ------- 0 1.0 7.0 2 2
h 1.32 1 8 cbr 1000 ------- 0 1.0 7.0 40 40
+ 1.324 1 8 cbr 1000 ------- 0 1.0 7.0 3 3
- 1.324 1 8 cbr 1000 ------- 0 1.0 7.0 3 3
h 1.328 1 8 cbr 1000 ------- 0 1.0 7.0 41 41
+ 1.332 1 8 cbr 1000 ------- 0 1.0 7.0 4 4
- 1.332 1 8 cbr 1000 ------- 0 1.0 7.0 4 4
h 1.336 1 8 cbr 1000 ------- 0 1.0 7.0 42 42
+ 1.34 1 8 cbr 1000 ------- 0 1.0 7.0 5 5
- 1.34 1 8 cbr 1000 ------- 0 1.0 7.0 5 5
h 1.344 1 8 cbr 1000 ------- 0 1.0 7.0 43 43
+ 1.348 1 8 cbr 1000 ------- 0 1.0 7.0 6 6
- 1.348 1 8 cbr 1000 ------- 0 1.0 7.0 6 6
h 1.352 1 8 cbr 1000 ------- 0 1.0 7.0 44 44
+ 1.356 1 8 cbr 1000 ------- 0 1.0 7.0 7 7
- 1.356 1 8 cbr 1000 ------- 0 1.0 7.0 7 7
h 1.36 1 8 cbr 1000 ------- 0 1.0 7.0 45 45
+ 1.364 1 8 cbr 1000 ------- 0 1.0 7.0 8 8
- 1.364 1 8 cbr 1000 ------- 0 1.0 7.0 8 8
h 1.368 1 8 cbr 1000 ------- 0 1.0 7.0 46 46
+ 1.372 1 8 cbr 1000 ------- 0 1.0 7.0 9 9
- 1.372 1 8 cbr 1000 ------- 0 1.0 7.0 9 9
h 1.376 1 8 cbr 1000 ------- 0 1.0 7.0 47 47
+ 1.38 1 8 cbr 1000 ------- 0 1.0 7.0 10 10
- 1.38 1 8 cbr 1000 ------- 0 1.0 7.0 10 10
h 1.384 1 8 cbr 1000 ------- 0 1.0 7.0 48 48
+ 1.388 1 8 cbr 1000 ------- 0 1.0 7.0 11 11
- 1.388 1 8 cbr 1000 ------- 0 1.0 7.0 11 11
h 1.392 1 8 cbr 1000 ------- 0 1.0 7.0 49 49
+ 1.396 1 8 cbr 1000 ------- 0 1.0 7.0 12 12
- 1.396 1 8 cbr 1000 ------- 0 1.0 7.0 12 12
h 1.4 1 8 cbr 1000 ------- 0 1.0 7.0 50 50
+ 1.404 1 8 cbr 1000 ------- 0 1.0 7.0 13 13
- 1.404 1 8 cbr 1000 ------- 0 1.0 7.0 13 13
h 1.408 1 8 cbr 1000 ------- 0 1.0 7.0 51 51
+ 1.412 1 8 cbr 1000 ------- 0 1.0 7.0 14 14
- 1.412 1 8 cbr 1000 ------- 0 1.0 7.0 14 14
h 1.416 1 8 cbr 1000 ------- 0 1.0 7.0 52 52
+ 1.42 1 8 cbr 1000 ------- 0 1.0 7.0 15 15
- 1.42 1 8 cbr 1000 ------- 0 1.0 7.0 15 15
h 1.424 1 8 cbr 1000 ------- 0 1.0 7.0 53 53
+ 1.428 1 8 cbr 1000 ------- 0 1.0 7.0 16 16
- 1.428 1 8 cbr 1000 ------- 0 1.0 7.0 16 16
h 1.432 1 8 cbr 1000 ------- 0 1.0 7.0 54 54
+ 1.436 1 8 cbr 1000 ------- 0 1.0 7.0 17 17
- 1.436 1 8 cbr 1000 ------- 0 1.0 7.0 17 17
h 1.44 1 8 cbr 1000 ------- 0 1.0 7.0 55 55
+ 1.444 1 8 cbr 1000 ------- 0 1.0 7.0 18 18
- 1.444 1 8 cbr 1000 ------- 0 1.0 7.0 18 18
h 1.448 1 8 cbr 1000 ------- 0 1.0 7.0 56 56
+ 1.452 1 8 cbr 1000 ------- 0 1.0 7.0 19 19
- 1.452 1 8 cbr 1000 ------- 0 1.0 7.0 19 19
h 1.456 1 8 cbr 1000 ------- 0 1.0 7.0 57 57
+ 1.46 1 8 cbr 1000 ------- 0 1.0 7.0 20 20
- 1.46 1 8 cbr 1000 ------- 0 1.0 7.0 20 20
h 1.464 1 8 cbr 1000 ------- 0 1.0 7.0 58 58
+ 1.468 1 8 cbr 1000 ------- 0 1.0 7.0 21 21
- 1.468 1 8 cbr 1000 ------- 0 1.0 7.0 21 21
h 1.472 1 8 cbr 1000 ------- 0 1.0 7.0 59 59
+ 1.476 1 8 cbr 1000 ------- 0 1.0 7.0 22 22
- 1.476 1 8 cbr 1000 ------- 0 1.0 7.0 22 22
h 1.48 1 8 cbr 1000 ------- 0 1.0 7.0 60 60
+ 1.484 1 8 cbr 1000 ------- 0 1.0 7.0 23 23
- 1.484 1 8 cbr 1000 ------- 0 1.0 7.0 23 23
h 1.488 1 8 cbr 1000 ------- 0 1.0 7.0 61 61
+ 1.492 1 8 cbr 1000 ------- 0 1.0 7.0 24 24
- 1.492 1 8 cbr 1000 ------- 0 1.0 7.0 24 24
h 1.496 1 8 cbr 1000 ------- 0 1.0 7.0 62 62
+ 1.5 1 8 cbr 1000 ------- 0 1.0 7.0 25 25
- 1.5 1 8 cbr 1000 ------- 0 1.0 7.0 25 25
h 1.504 1 8 cbr 1000 ------- 0 1.0 7.0 63 63
+ 1.508 1 8 cbr 1000 ------- 0 1.0 7.0 26 26
- 1.508 1 8 cbr 1000 ------- 0 1.0 7.0 26 26
h 1.512 1 8 cbr 1000 ------- 0 1.0 7.0 64 64
+ 1.516 1 8 cbr 1000 ------- 0 1.0 7.0 27 27
- 1.516 1 8 cbr 1000 ------- 0 1.0 7.0 27 27
h 1.52 1 8 cbr 1000 ------- 0 1.0 7.0 65 65
+ 1.524 1 8 cbr 1000 ------- 0 1.0 7.0 28 28
- 1.524 1 8 cbr 1000 ------- 0 1.0 7.0 28 28
h 1.528 1 8 cbr 1000 ------- 0 1.0 7.0 66 66
+ 1.532 1 8 cbr 1000 ------- 0 1.0 7.0 29 29
- 1.532 1 8 cbr 1000 ------- 0 1.0 7.0 29 29
h 1.536 1 8 cbr 1000 ------- 0 1.0 7.0 67 67
+ 1.54 1 8 cbr 1000 ------- 0 1.0 7.0 30 30
- 1.54 1 8 cbr 1000 ------- 0 1.0 7.0 30 30
h 1.544 1 8 cbr 1000 ------- 0 1.0 7.0 68 68
+ 1.548 1 8 cbr 1000 ------- 0 1.0 7.0 31 31
- 1.548 1 8 cbr 1000 ------- 0 1.0 7.0 31 31
h 1.552 1 8 cbr 1000 ------- 0 1.0 7.0 69 69
+ 1.556 1 8 cbr 1000 ------- 0 1.0 7.0 32 32
- 1.556 1 8 cbr 1000 ------- 0 1.0 7.0 32 32
h 1.56 1 8 cbr 1000 ------- 0 1.0 7.0 70 70
+ 1.564 1 8 cbr 1000 ------- 0 1.0 7.0 33 33
- 1.564 1 8 cbr 1000 ------- 0 1.0 7.0 33 33
h 1.568 1 8 cbr 1000 ------- 0 1.0 7.0 71 71
+ 1.572 1 8 cbr 1000 ------- 0 1.0 7.0 34 34
- 1.572 1 8 cbr 1000 ------- 0 1.0 7.0 34 34
h 1.576 1 8 cbr 1000 ------- 0 1.0 7.0 72 72
+ 1.58 1 8 cbr 1000 ------- 0 1.0 7.0 35 35
- 1.58 1 8 cbr 1000 ------- 0 1.0 7.0 35 35
h 1.584 1 8 cbr 1000 ------- 0 1.0 7.0 73 73
+ 1.588 1 8 cbr 1000 ------- 0 1.0 7.0 36 36
- 1.588 1 8 cbr 1000 ------- 0 1.0 7.0 36 36
h 1.592 1 8 cbr 1000 ------- 0 1.0 7.0 74 74
+ 1.596 1 8 cbr 1000 ------- 0 1.0 7.0 37 37
- 1.596 1 8 cbr 1000 ------- 0 1.0 7.0 37 37
h 1.6 1 8 cbr 1000 ------- 0 1.0 7.0 75 75
r 1.600085 8 3 cbr 1000 ------- 0 1.0 7.0 0 0
d 1.600085 3 4 cbr 1000 ------- 0 1.0 7.0 0 0
+ 1.604 1 8 cbr 1000 ------- 0 1.0 7.0 38 38
- 1.604 1 8 cbr 1000 ------- 0 1.0 7.0 38 38
h 1.608 1 8 cbr 1000 ------- 0 1.0 7.0 76 76
r 1.608085 8 3 cbr 1000 ------- 0 1.0 7.0 1 1
+ 1.608085 3 4 cbr 1000 ------- 0 1.0 7.0 1 1
- 1.608085 3 4 cbr 1000 ------- 0 1.0 7.0 1 1
+ 1.612 1 8 cbr 1000 ------- 0 1.0 7.0 39 39
- 1.612 1 8 cbr 1000 ------- 0 1.0 7.0 39 39
h 1.616 1 8 cbr 1000 ------- 0 1.0 7.0 77 77
r 1.616085 8 3 cbr 1000 ------- 0 1.0 7.0 2 2
d 1.616085 3 4 cbr 1000 ------- 0 1.0 7.0 2 2
r 1.618165 3 4 cbr 1000 ------- 0 1.0 7.0 1 1
h 1.618165 4 9 cbr 1000 ------- 0 1.0 7.0 1 1
+ 1.62 1 8 cbr 1000 ------- 0 1.0 7.0 40 40
- 1.62 1 8 cbr 1000 ------- 0 1.0 7.0 40 40
h 1.624 1 8 cbr 1000 ------- 0 1.0 7.0 78 78
r 1.624085 8 3 cbr 1000 ------- 0 1.0 7.0 3 3
d 1.624085 3 4 cbr 1000 ------- 0 1.0 7.0 3 3
+ 1.628 1 8 cbr 1000 ------- 0 1.0 7.0 41 41
- 1.628 1 8 cbr 1000 ------- 0 1.0 7.0 41 41
h 1.632 1 8 cbr 1000 ------- 0 1.0 7.0 79 79
r 1.632085 8 3 cbr 1000 ------- 0 1.0 7.0 4 4
d 1.632085 3 4 cbr 1000 ------- 0 1.0 7.0 4 4
+ 1.636 1 8 cbr 1000 ------- 0 1.0 7.0 42 42
- 1.636 1 8 cbr 1000 ------- 0 1.0 7.0 42 42
h 1.64 1 8 cbr 1000 ------- 0 1.0 7.0 80 80
r 1.640085 8 3 cbr 1000 ------- 0 1.0 7.0 5 5
+ 1.640085 3 4 cbr 1000 ------- 0 1.0 7.0 5 5
- 1.640085 3 4 cbr 1000 ------- 0 1.0 7.0 5 5
+ 1.644 1 8 cbr 1000 ------- 0 1.0 7.0 43 43
- 1.644 1 8 cbr 1000 ------- 0 1.0 7.0 43 43
h 1.648 1 8 cbr 1000 ------- 0 1.0 7.0 81 81
r 1.648085 8 3 cbr 1000 ------- 0 1.0 7.0 6 6
d 1.648085 3 4 cbr 1000 ------- 0 1.0 7.0 6 6
r 1.650165 3 4 cbr 1000 ------- 0 1.0 7.0 5 5
h 1.650165 4 9 cbr 1000 ------- 0 1.0 7.0 5 5
+ 1.652 1 8 cbr 1000 ------- 0 1.0 7.0 44 44
- 1.652 1 8 cbr 1000 ------- 0 1.0 7.0 44 44
h 1.656 1 8 cbr 1000 ------- 0 1.0 7.0 82 82
r 1.656085 8 3 cbr 1000 ------- 0 1.0 7.0 7 7
+ 1.656085 3 4 cbr 1000 ------- 0 1.0 7.0 7 7
- 1.656085 3 4 cbr 1000 ------- 0 1.0 7.0 7 7
+ 1.66 1 8 cbr 1000 ------- 0 1.0 7.0 45 45
- 1.66 1 8 cbr 1000 ------- 0 1.0 7.0 45 45
h 1.664 1 8 cbr 1000 ------- 0 1.0 7.0 83 83
r 1.664085 8 3 cbr 1000 ------- 0 1.0 7.0 8 8
d 1.664085 3 4 cbr 1000 ------- 0 1.0 7.0 8 8
r 1.666165 3 4 cbr 1000 ------- 0 1.0 7.0 7 7
h 1.666165 4 9 cbr 1000 ------- 0 1.0 7.0 7 7
+ 1.668 1 8 cbr 1000 ------- 0 1.0 7.0 46 46
- 1.668 1 8 cbr 1000 ------- 0 1.0 7.0 46 46
h 1.672 1 8 cbr 1000 ------- 0 1.0 7.0 84 84
r 1.672085 8 3 cbr 1000 ------- 0 1.0 7.0 9 9
+ 1.672085 3 4 cbr 1000 ------- 0 1.0 7.0 9 9
- 1.672085 3 4 cbr 1000 ------- 0 1.0 7.0 9 9
+ 1.676 1 8 cbr 1000 ------- 0 1.0 7.0 47 47
- 1.676 1 8 cbr 1000 ------- 0 1.0 7.0 47 47
h 1.68 1 8 cbr 1000 ------- 0 1.0 7.0 85 85
r 1.680085 8 3 cbr 1000 ------- 0 1.0 7.0 10 10
d 1.680085 3 4 cbr 1000 ------- 0 1.0 7.0 10 10
r 1.682165 3 4 cbr 1000 ------- 0 1.0 7.0 9 9
h 1.682165 4 9 cbr 1000 ------- 0 1.0 7.0 9 9
+ 1.684 1 8 cbr 1000 ------- 0 1.0 7.0 48 48
- 1.684 1 8 cbr 1000 ------- 0 1.0 7.0 48 48
h 1.688 1 8 cbr 1000 ------- 0 1.0 7.0 86 86
r 1.688085 8 3 cbr 1000 ------- 0 1.0 7.0 11 11
+ 1.688085 3 4 cbr 1000 ------- 0 1.0 7.0 11 11
- 1.688085 3 4 cbr 1000 ------- 0 1.0 7.0 11 11
+ 1.692 1 8 cbr 1000 ------- 0 1.0 7.0 49 49
- 1.692 1 8 cbr 1000 ------- 0 1.0 7.0 49 49
h 1.696 1 8 cbr 1000 ------- 0 1.0 7.0 87 87
r 1.696085 8 3 cbr 1000 ------- 0 1.0 7.0 12 12
d 1.696085 3 4 cbr 1000 ------- 0 1.0 7.0 12 12
r 1.698165 3 4 cbr 1000 ------- 0 1.0 7.0 11 11
h 1.698165 4 9 cbr 1000 ------- 0 1.0 7.0 11 11
+ 1.7 1 8 cbr 1000 ------- 0 1.0 7.0 50 50
- 1.7 1 8 cbr 1000 ------- 0 1.0 7.0 50 50
h 1.704 1 8 cbr 1000 ------- 0 1.0 7.0 88 88
r 1.704085 8 3 cbr 1000 ------- 0 1.0 7.0 13 13
d 1.704085 3 4 cbr 1000 ------- 0 1.0 7.0 13 13
+ 1.708 1 8 cbr 1000 ------- 0 1.0 7.0 51 51
- 1.708 1 8 cbr 1000 ------- 0 1.0 7.0 51 51
h 1.712 1 8 cbr 1000 ------- 0 1.0 7.0 89 89
r 1.712085 8 3 cbr 1000 ------- 0 1.0 7.0 14 14
+ 1.712085 3 4 cbr 1000 ------- 0 1.0 7.0 14 14
- 1.712085 3 4 cbr 1000 ------- 0 1.0 7.0 14 14
+ 1.716 1 8 cbr 1000 ------- 0 1.0 7.0 52 52
- 1.716 1 8 cbr 1000 ------- 0 1.0 7.0 52 52
h 1.72 1 8 cbr 1000 ------- 0 1.0 7.0 90 90
r 1.720085 8 3 cbr 1000 ------- 0 1.0 7.0 15 15
d 1.720085 3 4 cbr 1000 ------- 0 1.0 7.0 15 15
r 1.722165 3 4 cbr 1000 ------- 0 1.0 7.0 14 14
h 1.722165 4 9 cbr 1000 ------- 0 1.0 7.0 14 14
+ 1.724 1 8 cbr 1000 ------- 0 1.0 7.0 53 53
- 1.724 1 8 cbr 1000 ------- 0 1.0 7.0 53 53
h 1.728 1 8 cbr 1000 ------- 0 1.0 7.0 91 91
r 1.728085 8 3 cbr 1000 ------- 0 1.0 7.0 16 16
+ 1.728085 3 4 cbr 1000 ------- 0 1.0 7.0 16 16
- 1.728085 3 4 cbr 1000 ------- 0 1.0 7.0 16 16
+ 1.732 1 8 cbr 1000 ------- 0 1.0 7.0 54 54
- 1.732 1 8 cbr 1000 ------- 0 1.0 7.0 54 54
h 1.736 1 8 cbr 1000 ------- 0 1.0 7.0 92 92
r 1.736085 8 3 cbr 1000 ------- 0 1.0 7.0 17 17
d 1.736085 3 4 cbr 1000 ------- 0 1.0 7.0 17 17
r 1.738165 3 4 cbr 1000 ------- 0 1.0 7.0 16 16
h 1.738165 4 9 cbr 1000 ------- 0 1.0 7.0 16 16
+ 1.74 1 8 cbr 1000 ------- 0 1.0 7.0 55 55
- 1.74 1 8 cbr 1000 ------- 0 1.0 7.0 55 55
h 1.744 1 8 cbr 1000 ------- 0 1.0 7.0 93 93
r 1.744085 8 3 cbr 1000 ------- 0 1.0 7.0 18 18
d 1.744085 3 4 cbr 1000 ------- 0 1.0 7.0 18 18
+ 1.748 1 8 cbr 1000 ------- 0 1.0 7.0 56 56
- 1.748 1 8 cbr 1000 ------- 0 1.0 7.0 56 56
h 1.752 1 8 cbr 1000 ------- 0 1.0 7.0 94 94
r 1.752085 8 3 cbr 1000 ------- 0 1.0 7.0 19 19
d 1.752085 3 4 cbr 1000 ------- 0 1.0 7.0 19 19
+ 1.756 1 8 cbr 1000 ------- 0 1.0 7.0 57 57
- 1.756 1 8 cbr 1000 ------- 0 1.0 7.0 57 57
h 1.76 1 8 cbr 1000 ------- 0 1.0 7.0 95 95
r 1.760085 8 3 cbr 1000 ------- 0 1.0 7.0 20 20
+ 1.760085 3 4 cbr 1000 ------- 0 1.0 7.0 20 20
- 1.760085 3 4 cbr 1000 ------- 0 1.0 7.0 20 20
+ 1.764 1 8 cbr 1000 ------- 0 1.0 7.0 58 58
- 1.764 1 8 cbr 1000 ------- 0 1.0 7.0 58 58
h 1.768 1 8 cbr 1000 ------- 0 1.0 7.0 96 96
r 1.768085 8 3 cbr 1000 ------- 0 1.0 7.0 21 21
d 1.768085 3 4 cbr 1000 ------- 0 1.0 7.0 21 21
r 1.770165 3 4 cbr 1000 ------- 0 1.0 7.0 20 20
h 1.770165 4 9 cbr 1000 ------- 0 1.0 7.0 20 20
+ 1.772 1 8 cbr 1000 ------- 0 1.0 7.0 59 59
- 1.772 1 8 cbr 1000 ------- 0 1.0 7.0 59 59
h 1.776 1 8 cbr 1000 ------- 0 1.0 7.0 97 97
r 1.776085 8 3 cbr 1000 ------- 0 1.0 7.0 22 22
d 1.776085 3 4 cbr 1000 ------- 0 1.0 7.0 22 22
+ 1.78 1 8 cbr 1000 ------- 0 1.0 7.0 60 60
- 1.78 1 8 cbr 1000 ------- 0 1.0 7.0 60 60
h 1.784 1 8 cbr 1000 ------- 0 1.0 7.0 98 98
r 1.784085 8 3 cbr 1000 ------- 0 1.0 7.0 23 23
d 1.784085 3 4 cbr 1000 ------- 0 1.0 7.0 23 23
+ 1.788 1 8 cbr 1000 ------- 0 1.0 7.0 61 61
- 1.788 1 8 cbr 1000 ------- 0 1.0 7.0 61 61
h 1.792 1 8 cbr 1000 ------- 0 1.0 7.0 99 99
r 1.792085 8 3 cbr 1000 ------- 0 1.0 7.0 24 24
+ 1.792085 3 4 cbr 1000 ------- 0 1.0 7.0 24 24
- 1.792085 3 4 cbr 1000 ------- 0 1.0 7.0 24 24
+ 1.796 1 8 cbr 1000 ------- 0 1.0 7.0 62 62
- 1.796 1 8 cbr 1000 ------- 0 1.0 7.0 62 62
h 1.8 1 8 cbr 1000 ------- 0 1.0 7.0 100 100
r 1.800085 8 3 cbr 1000 ------- 0 1.0 7.0 25 25
d 1.800085 3 4 cbr 1000 ------- 0 1.0 7.0 25 25
r 1.802165 3 4 cbr 1000 ------- 0 1.0 7.0 24 24
h 1.802165 4 9 cbr 1000 ------- 0 1.0 7.0 24 24
+ 1.804 1 8 cbr 1000 ------- 0 1.0 7.0 63 63
- 1.804 1 8 cbr 1000 ------- 0 1.0 7.0 63 63
h 1.808 1 8 cbr 1000 ------- 0 1.0 7.0 101 101
r 1.808085 8 3 cbr 1000 ------- 0 1.0 7.0 26 26
+ 1.808085 3 4 cbr 1000 ------- 0 1.0 7.0 26 26
- 1.808085 3 4 cbr 1000 ------- 0 1.0 7.0 26 26
+ 1.812 1 8 cbr 1000 ------- 0 1.0 7.0 64 64
- 1.812 1 8 cbr 1000 ------- 0 1.0 7.0 64 64
h 1.816 1 8 cbr 1000 ------- 0 1.0 7.0 102 102
r 1.816085 8 3 cbr 1000 ------- 0 1.0 7.0 27 27
+ 1.816085 3 4 cbr 1000 ------- 0 1.0 7.0 27 27
- 1.816085 3 4 cbr 1000 ------- 0 1.0 7.0 27 27
r 1.818165 3 4 cbr 1000 ------- 0 1.0 7.0 26 26
h 1.818165 4 9 cbr 1000 ------- 0 1.0 7.0 26 26
+ 1.82 1 8 cbr 1000 ------- 0 1.0 7.0 65 65
- 1.82 1 8 cbr 1000 ------- 0 1.0 7.0 65 65
h 1.824 1 8 cbr 1000 ------- 0 1.0 7.0 103 103
r 1.824085 8 3 cbr 1000 ------- 0 1.0 7.0 28 28
+ 1.824085 3 4 cbr 1000 ------- 0 1.0 7.0 28 28
- 1.824085 3 4 cbr 1000 ------- 0 1.0 7.0 28 28
r 1.826165 3 4 cbr 1000 ------- 0 1.0 7.0 27 27
h 1.826165 4 9 cbr 1000 ------- 0 1.0 7.0 27 27
+ 1.828 1 8 cbr 1000 ------- 0 1.0 7.0 66 66
- 1.828 1 8 cbr 1000 ------- 0 1.0 7.0 66 66
h 1.832 1 8 cbr 1000 ------- 0 1.0 7.0 104 104
r 1.832085 8 3 cbr 1000 ------- 0 1.0 7.0 29 29
d 1.832085 3 4 cbr 1000 ------- 0 1.0 7.0 29 29
r 1.834165 3 4 cbr 1000 ------- 0 1.0 7.0 28 28
h 1.834165 4 9 cbr 1000 ------- 0 1.0 7.0 28 28
+ 1.836 1 8 cbr 1000 ------- 0 1.0 7.0 67 67
- 1.836 1 8 cbr 1000 ------- 0 1.0 7.0 67 67
h 1.84 1 8 cbr 1000 ------- 0 1.0 7.0 105 105
r 1.840085 8 3 cbr 1000 ------- 0 1.0 7.0 30 30
d 1.840085 3 4 cbr 1000 ------- 0 1.0 7.0 30 30
+ 1.844 1 8 cbr 1000 ------- 0 1.0 7.0 68 68
- 1.844 1 8 cbr 1000 ------- 0 1.0 7.0 68 68
h 1.848 1 8 cbr 1000 ------- 0 1.0 7.0 106 106
r 1.848085 8 3 cbr 1000 ------- 0 1.0 7.0 31 31
+ 1.848085 3 4 cbr 1000 ------- 0 1.0 7.0 31 31
- 1.848085 3 4 cbr 1000 ------- 0 1.0 7.0 31 31
+ 1.852 1 8 cbr 1000 ------- 0 1.0 7.0 69 69
- 1.852 1 8 cbr 1000 ------- 0 1.0 7.0 69 69
h 1.856 1 8 cbr 1000 ------- 0 1.0 7.0 107 107
r 1.856085 8 3 cbr 1000 ------- 0 1.0 7.0 32 32
+ 1.856085 3 4 cbr 1000 ------- 0 1.0 7.0 32 32
- 1.856085 3 4 cbr 1000 ------- 0 1.0 7.0 32 32
r 1.858165 3 4 cbr 1000 ------- 0 1.0 7.0 31 31
h 1.858165 4 9 cbr 1000 ------- 0 1.0 7.0 31 31
+ 1.86 1 8 cbr 1000 ------- 0 1.0 7.0 70 70
- 1.86 1 8 cbr 1000 ------- 0 1.0 7.0 70 70
h 1.864 1 8 cbr 1000 ------- 0 1.0 7.0 108 108
r 1.864085 8 3 cbr 1000 ------- 0 1.0 7.0 33 33
+ 1.864085 3 4 cbr 1000 ------- 0 1.0 7.0 33 33
- 1.864085 3 4 cbr 1000 ------- 0 1.0 7.0 33 33
r 1.866165 3 4 cbr 1000 ------- 0 1.0 7.0 32 32
h 1.866165 4 9 cbr 1000 ------- 0 1.0 7.0 32 32
+ 1.868 1 8 cbr 1000 ------- 0 1.0 7.0 71 71
- 1.868 1 8 cbr 1000 ------- 0 1.0 7.0 71 71
h 1.872 1 8 cbr 1000 ------- 0 1.0 7.0 109 109
r 1.872085 8 3 cbr 1000 ------- 0 1.0 7.0 34 34
+ 1.872085 3 4 cbr 1000 ------- 0 1.0 7.0 34 34
- 1.872085 3 4 cbr 1000 ------- 0 1.0 7.0 34 34
r 1.874165 3 4 cbr 1000 ------- 0 1.0 7.0 33 33
h 1.874165 4 9 cbr 1000 ------- 0 1.0 7.0 33 33
+ 1.876 1 8 cbr 1000 ------- 0 1.0 7.0 72 72
- 1.876 1 8 cbr 1000 ------- 0 1.0 7.0 72 72
h 1.88 1 8 cbr 1000 ------- 0 1.0 7.0 110 110
r 1.880085 8 3 cbr 1000 ------- 0 1.0 7.0 35 35
d 1.880085 3 4 cbr 1000 ------- 0 1.0 7.0 35 35
r 1.882165 3 4 cbr 1000 ------- 0 1.0 7.0 34 34
h 1.882165 4 9 cbr 1000 ------- 0 1.0 7.0 34 34
+ 1.884 1 8 cbr 1000 ------- 0 1.0 7.0 73 73
- 1.884 1 8 cbr 1000 ------- 0 1.0 7.0 73 73
h 1.888 1 8 cbr 1000 ------- 0 1.0 7.0 111 111
r 1.888085 8 3 cbr 1000 ------- 0 1.0 7.0 36 36
d 1.888085 3 4 cbr 1000 ------- 0 1.0 7.0 36 36
+ 1.892 1 8 cbr 1000 ------- 0 1.0 7.0 74 74
- 1.892 1 8 cbr 1000 ------- 0 1.0 7.0 74 74
h 1.896 1 8 cbr 1000 ------- 0 1.0 7.0 112 112
r 1.896085 8 3 cbr 1000 ------- 0 1.0 7.0 37 37
d 1.896085 3 4 cbr 1000 ------- 0 1.0 7.0 37 37
+ 1.9 1 8 cbr 1000 ------- 0 1.0 7.0 75 75
- 1.9 1 8 cbr 1000 ------- 0 1.0 7.0 75 75
h 1.904 1 8 cbr 1000 ------- 0 1.0 7.0 113 113
r 1.904085 8 3 cbr 1000 ------- 0 1.0 7.0 38 38
d 1.904085 3 4 cbr 1000 ------- 0 1.0 7.0 38 38
+ 1.908 1 8 cbr 1000 ------- 0 1.0 7.0 76 76
- 1.908 1 8 cbr 1000 ------- 0 1.0 7.0 76 76
h 1.912 1 8 cbr 1000 ------- 0 1.0 7.0 114 114
r 1.912085 8 3 cbr 1000 ------- 0 1.0 7.0 39 39
+ 1.912085 3 4 cbr 1000 ------- 0 1.0 7.0 39 39
- 1.912085 3 4 cbr 1000 ------- 0 1.0 7.0 39 39
+ 1.916 1 8 cbr 1000 ------- 0 1.0 7.0 77 77
- 1.916 1 8 cbr 1000 ------- 0 1.0 7.0 77 77
+ 1.918165 4 9 cbr 1000 ------- 0 1.0 7.0 1 1
- 1.918165 4 9 cbr 1000 ------- 0 1.0 7.0 1 1
h 1.92 1 8 cbr 1000 ------- 0 1.0 7.0 115 115
r 1.920085 8 3 cbr 1000 ------- 0 1.0 7.0 40 40
+ 1.920085 3 4 cbr 1000 ------- 0 1.0 7.0 40 40
- 1.920085 3 4 cbr 1000 ------- 0 1.0 7.0 40 40
r 1.922165 3 4 cbr 1000 ------- 0 1.0 7.0 39 39
h 1.922165 4 9 cbr 1000 ------- 0 1.0 7.0 39 39
+ 1.924 1 8 cbr 1000 ------- 0 1.0 7.0 78 78
- 1.924 1 8 cbr 1000 ------- 0 1.0 7.0 78 78
h 1.928 1 8 cbr 1000 ------- 0 1.0 7.0 116 116
r 1.928085 8 3 cbr 1000 ------- 0 1.0 7.0 41 41
+ 1.928085 3 4 cbr 1000 ------- 0 1.0 7.0 41 41
- 1.928085 3 4 cbr 1000 ------- 0 1.0 7.0 41 41
r 1.930165 3 4 cbr 1000 ------- 0 1.0 7.0 40 40
h 1.930165 4 9 cbr 1000 ------- 0 1.0 7.0 40 40
+ 1.932 1 8 cbr 1000 ------- 0 1.0 7.0 79 79
- 1.932 1 8 cbr 1000 ------- 0 1.0 7.0 79 79
h 1.936 1 8 cbr 1000 ------- 0 1.0 7.0 117 117
r 1.936085 8 3 cbr 1000 ------- 0 1.0 7.0 42 42
d 1.936085 3 4 cbr 1000 ------- 0 1.0 7.0 42 42
r 1.938165 3 4 cbr 1000 ------- 0 1.0 7.0 41 41
h 1.938165 4 9 cbr 1000 ------- 0 1.0 7.0 41 41
+ 1.94 1 8 cbr 1000 ------- 0 1.0 7.0 80 80
- 1.94 1 8 cbr 1000 ------- 0 1.0 7.0 80 80
h 1.944 1 8 cbr 1000 ------- 0 1.0 7.0 118 118
r 1.944085 8 3 cbr 1000 ------- 0 1.0 7.0 43 43
d 1.944085 3 4 cbr 1000 ------- 0 1.0 7.0 43 43
+ 1.948 1 8 cbr 1000 ------- 0 1.0 7.0 81 81
- 1.948 1 8 cbr 1000 ------- 0 1.0 7.0 81 81
+ 1.950165 4 9 cbr 1000 ------- 0 1.0 7.0 5 5
- 1.950165 4 9 cbr 1000 ------- 0 1.0 7.0 5 5
h 1.952 1 8 cbr 1000 ------- 0 1.0 7.0 119 119
r 1.952085 8 3 cbr 1000 ------- 0 1.0 7.0 44 44
d 1.952085 3 4 cbr 1000 ------- 0 1.0 7.0 44 44
+ 1.956 1 8 cbr 1000 ------- 0 1.0 7.0 82 82
- 1.956 1 8 cbr 1000 ------- 0 1.0 7.0 82 82
h 1.96 1 8 cbr 1000 ------- 0 1.0 7.0 120 120
r 1.960085 8 3 cbr 1000 ------- 0 1.0 7.0 45 45
+ 1.960085 3 4 cbr 1000 ------- 0 1.0 7.0 45 45
- 1.960085 3 4 cbr 1000 ------- 0 1.0 7.0 45 45
+ 1.964 1 8 cbr 1000 ------- 0 1.0 7.0 83 83
- 1.964 1 8 cbr 1000 ------- 0 1.0 7.0 83 83
+ 1.966165 4 9 cbr 1000 ------- 0 1.0 7.0 7 7
- 1.966165 4 9 cbr 1000 ------- 0 1.0 7.0 7 7
h 1.968 1 8 cbr 1000 ------- 0 1.0 7.0 121 121
r 1.968085 8 3 cbr 1000 ------- 0 1.0 7.0 46 46
d 1.968085 3 4 cbr 1000 ------- 0 1.0 7.0 46 46
r 1.970165 3 4 cbr 1000 ------- 0 1.0 7.0 45 45
h 1.970165 4 9 cbr 1000 ------- 0 1.0 7.0 45 45
+ 1.972 1 8 cbr 1000 ------- 0 1.0 7.0 84 84
- 1.972 1 8 cbr 1000 ------- 0 1.0 7.0 84 84
h 1.976 1 8 cbr 1000 ------- 0 1.0 7.0 122 122
r 1.976085 8 3 cbr 1000 ------- 0 1.0 7.0 47 47
d 1.976085 3 4 cbr 1000 ------- 0 1.0 7.0 47 47
+ 1.98 1 8 cbr 1000 ------- 0 1.0 7.0 85 85
- 1.98 1 8 cbr 1000 ------- 0 1.0 7.0 85 85
+ 1.982165 4 9 cbr 1000 ------- 0 1.0 7.0 9 9
- 1.982165 4 9 cbr 1000 ------- 0 1.0 7.0 9 9
h 1.984 1 8 cbr 1000 ------- 0 1.0 7.0 123 123
r 1.984085 8 3 cbr 1000 ------- 0 1.0 7.0 48 48
+ 1.984085 3 4 cbr 1000 ------- 0 1.0 7.0 48 48
- 1.984085 3 4 cbr 1000 ------- 0 1.0 7.0 48 48
+ 1.988 1 8 cbr 1000 ------- 0 1.0 7.0 86 86
- 1.988 1 8 cbr 1000 ------- 0 1.0 7.0 86 86
h 1.992 1 8 cbr 1000 ------- 0 1.0 7.0 124 124
r 1.992085 8 3 cbr 1000 ------- 0 1.0 7.0 49 49
d 1.992085 3 4 cbr 1000 ------- 0 1.0 7.0 49 49
r 1.994165 3 4 cbr 1000 ------- 0 1.0 7.0 48 48
h 1.994165 4 9 cbr 1000 ------- 0 1.0 7.0 48 48
+ 1.996 1 8 cbr 1000 ------- 0 1.0 7.0 87 87
- 1.996 1 8 cbr 1000 ------- 0 1.0 7.0 87 87
+ 1.998165 4 9 cbr 1000 ------- 0 1.0 7.0 11 11
- 1.998165 4 9 cbr 1000 ------- 0 1.0 7.0 11 11
r 2.000085 8 3 cbr 1000 ------- 0 1.0 7.0 50 50
+ 2.000085 3 4 cbr 1000 ------- 0 1.0 7.0 50 50
- 2.000085 3 4 cbr 1000 ------- 0 1.0 7.0 50 50
+ 2.004 1 8 cbr 1000 ------- 0 1.0 7.0 88 88
- 2.004 1 8 cbr 1000 ------- 0 1.0 7.0 88 88
r 2.008085 8 3 cbr 1000 ------- 0 1.0 7.0 51 51
+ 2.008085 3 4 cbr 1000 ------- 0 1.0 7.0 51 51
- 2.008085 3 4 cbr 1000 ------- 0 1.0 7.0 51 51
r 2.010165 3 4 cbr 1000 ------- 0 1.0 7.0 50 50
h 2.010165 4 9 cbr 1000 ------- 0 1.0 7.0 50 50
+ 2.012 1 8 cbr 1000 ------- 0 1.0 7.0 89 89
- 2.012 1 8 cbr 1000 ------- 0 1.0 7.0 89 89
r 2.016085 8 3 cbr 1000 ------- 0 1.0 7.0 52 52
+ 2.016085 3 4 cbr 1000 ------- 0 1.0 7.0 52 52
- 2.016085 3 4 cbr 1000 ------- 0 1.0 7.0 52 52
r 2.018165 3 4 cbr 1000 ------- 0 1.0 7.0 51 51
h 2.018165 4 9 cbr 1000 ------- 0 1.0 7.0 51 51
+ 2.02 1 8 cbr 1000 ------- 0 1.0 7.0 90 90
- 2.02 1 8 cbr 1000 ------- 0 1.0 7.0 90 90
+ 2.022165 4 9 cbr 1000 ------- 0 1.0 7.0 14 14
- 2.022165 4 9 cbr 1000 ------- 0 1.0 7.0 14 14
r 2.024085 8 3 cbr 1000 ------- 0 1.0 7.0 53 53
d 2.024085 3 4 cbr 1000 ------- 0 1.0 7.0 53 53
r 2.026165 3 4 cbr 1000 ------- 0 1.0 7.0 52 52
h 2.026165 4 9 cbr 1000 ------- 0 1.0 7.0 52 52
+ 2.028 1 8 cbr 1000 ------- 0 1.0 7.0 91 91
- 2.028 1 8 cbr 1000 ------- 0 1.0 7.0 91 91
r 2.032085 8 3 cbr 1000 ------- 0 1.0 7.0 54 54
+ 2.032085 3 4 cbr 1000 ------- 0 1.0 7.0 54 54
- 2.032085 3 4 cbr 1000 ------- 0 1.0 7.0 54 54
+ 2.036 1 8 cbr 1000 ------- 0 1.0 7.0 92 92
- 2.036 1 8 cbr 1000 ------- 0 1.0 7.0 92 92
+ 2.038165 4 9 cbr 1000 ------- 0 1.0 7.0 16 16
- 2.038165 4 9 cbr 1000 ------- 0 1.0 7.0 16 16
r 2.040085 8 3 cbr 1000 ------- 0 1.0 7.0 55 55
d 2.040085 3 4 cbr 1000 ------- 0 1.0 7.0 55 55
r 2.042165 3 4 cbr 1000 ------- 0 1.0 7.0 54 54
h 2.042165 4 9 cbr 1000 ------- 0 1.0 7.0 54 54
+ 2.044 1 8 cbr 1000 ------- 0 1.0 7.0 93 93
- 2.044 1 8 cbr 1000 ------- 0 1.0 7.0 93 93
r 2.048085 8 3 cbr 1000 ------- 0 1.0 7.0 56 56
d 2.048085 3 4 cbr 1000 ------- 0 1.0 7.0 56 56
+ 2.052 1 8 cbr 1000 ------- 0 1.0 7.0 94 94
- 2.052 1 8 cbr 1000 ------- 0 1.0 7.0 94 94
r 2.056085 8 3 cbr 1000 ------- 0 1.0 7.0 57 57
d 2.056085 3 4 cbr 1000 ------- 0 1.0 7.0 57 57
+ 2.06 1 8 cbr 1000 ------- 0 1.0 7.0 95 95
- 2.06 1 8 cbr 1000 ------- 0 1.0 7.0 95 95
r 2.064085 8 3 cbr 1000 ------- 0 1.0 7.0 58 58
d 2.064085 3 4 cbr 1000 ------- 0 1.0 7.0 58 58
+ 2.068 1 8 cbr 1000 ------- 0 1.0 7.0 96 96
- 2.068 1 8 cbr 1000 ------- 0 1.0 7.0 96 96
+ 2.070165 4 9 cbr 1000 ------- 0 1.0 7.0 20 20
- 2.070165 4 9 cbr 1000 ------- 0 1.0 7.0 20 20
r 2.072085 8 3 cbr 1000 ------- 0 1.0 7.0 59 59
+ 2.072085 3 4 cbr 1000 ------- 0 1.0 7.0 59 59
- 2.072085 3 4 cbr 1000 ------- 0 1.0 7.0 59 59
+ 2.076 1 8 cbr 1000 ------- 0 1.0 7.0 97 97
- 2.076 1 8 cbr 1000 ------- 0 1.0 7.0 97 97
r 2.080085 8 3 cbr 1000 ------- 0 1.0 7.0 60 60
+ 2.080085 3 4 cbr 1000 ------- 0 1.0 7.0 60 60
- 2.080085 3 4 cbr 1000 ------- 0 1.0 7.0 60 60
r 2.082165 3 4 cbr 1000 ------- 0 1.0 7.0 59 59
h 2.082165 4 9 cbr 1000 ------- 0 1.0 7.0 59 59
+ 2.084 1 8 cbr 1000 ------- 0 1.0 7.0 98 98
- 2.084 1 8 cbr 1000 ------- 0 1.0 7.0 98 98
r 2.088085 8 3 cbr 1000 ------- 0 1.0 7.0 61 61
+ 2.088085 3 4 cbr 1000 ------- 0 1.0 7.0 61 61
- 2.088085 3 4 cbr 1000 ------- 0 1.0 7.0 61 61
r 2.090165 3 4 cbr 1000 ------- 0 1.0 7.0 60 60
h 2.090165 4 9 cbr 1000 ------- 0 1.0 7.0 60 60
+ 2.092 1 8 cbr 1000 ------- 0 1.0 7.0 99 99
- 2.092 1 8 cbr 1000 ------- 0 1.0 7.0 99 99
r 2.096085 8 3 cbr 1000 ------- 0 1.0 7.0 62 62
d 2.096085 3 4 cbr 1000 ------- 0 1.0 7.0 62 62
r 2.098165 3 4 cbr 1000 ------- 0 1.0 7.0 61 61
h 2.098165 4 9 cbr 1000 ------- 0 1.0 7.0 61 61
+ 2.1 1 8 cbr 1000 ------- 0 1.0 7.0 100 100
- 2.1 1 8 cbr 1000 ------- 0 1.0 7.0 100 100
+ 2.102165 4 9 cbr 1000 ------- 0 1.0 7.0 24 24
- 2.102165 4 9 cbr 1000 ------- 0 1.0 7.0 24 24
r 2.104085 8 3 cbr 1000 ------- 0 1.0 7.0 63 63
+ 2.104085 3 4 cbr 1000 ------- 0 1.0 7.0 63 63
- 2.104085 3 4 cbr 1000 ------- 0 1.0 7.0 63 63
+ 2.108 1 8 cbr 1000 ------- 0 1.0 7.0 101 101
- 2.108 1 8 cbr 1000 ------- 0 1.0 7.0 101 101
r 2.112085 8 3 cbr 1000 ------- 0 1.0 7.0 64 64
d 2.112085 3 4 cbr 1000 ------- 0 1.0 7.0 64 64
r 2.114165 3 4 cbr 1000 ------- 0 1.0 7.0 63 63
h 2.114165 4 9 cbr 1000 ------- 0 1.0 7.0 63 63
+ 2.116 1 8 cbr 1000 ------- 0 1.0 7.0 102 102
- 2.116 1 8 cbr 1000 ------- 0 1.0 7.0 102 102
+ 2.118165 4 9 cbr 1000 ------- 0 1.0 7.0 26 26
- 2.118165 4 9 cbr 1000 ------- 0 1.0 7.0 26 26
r 2.120085 8 3 cbr 1000 ------- 0 1.0 7.0 65 65
+ 2.120085 3 4 cbr 1000 ------- 0 1.0 7.0 65 65
- 2.120085 3 4 cbr 1000 ------- 0 1.0 7.0 65 65
+ 2.124 1 8 cbr 1000 ------- 0 1.0 7.0 103 103
- 2.124 1 8 cbr 1000 ------- 0 1.0 7.0 103 103
+ 2.126165 4 9 cbr 1000 ------- 0 1.0 7.0 27 27
- 2.126165 4 9 cbr 1000 ------- 0 1.0 7.0 27 27
r 2.128085 8 3 cbr 1000 ------- 0 1.0 7.0 66 66
d 2.128085 3 4 cbr 1000 ------- 0 1.0 7.0 66 66
r 2.130165 3 4 cbr 1000 ------- 0 1.0 7.0 65 65
h 2.130165 4 9 cbr 1000 ------- 0 1.0 7.0 65 65
+ 2.132 1 8 cbr 1000 ------- 0 1.0 7.0 104 104
- 2.132 1 8 cbr 1000 ------- 0 1.0 7.0 104 104
+ 2.134165 4 9 cbr 1000 ------- 0 1.0 7.0 28 28
- 2.134165 4 9 cbr 1000 ------- 0 1.0 7.0 28 28
r 2.136085 8 3 cbr 1000 ------- 0 1.0 7.0 67 67
d 2.136085 3 4 cbr 1000 ------- 0 1.0 7.0 67 67
+ 2.14 1 8 cbr 1000 ------- 0 1.0 7.0 105 105
- 2.14 1 8 cbr 1000 ------- 0 1.0 7.0 105 105
r 2.144085 8 3 cbr 1000 ------- 0 1.0 7.0 68 68
d 2.144085 3 4 cbr 1000 ------- 0 1.0 7.0 68 68
+ 2.148 1 8 cbr 1000 ------- 0 1.0 7.0 106 106
- 2.148 1 8 cbr 1000 ------- 0 1.0 7.0 106 106
r 2.152085 8 3 cbr 1000 ------- 0 1.0 7.0 69 69
+ 2.152085 3 4 cbr 1000 ------- 0 1.0 7.0 69 69
- 2.152085 3 4 cbr 1000 ------- 0 1.0 7.0 69 69
+ 2.156 1 8 cbr 1000 ------- 0 1.0 7.0 107 107
- 2.156 1 8 cbr 1000 ------- 0 1.0 7.0 107 107
+ 2.158165 4 9 cbr 1000 ------- 0 1.0 7.0 31 31
- 2.158165 4 9 cbr 1000 ------- 0 1.0 7.0 31 31
r 2.160085 8 3 cbr 1000 ------- 0 1.0 7.0 70 70
+ 2.160085 3 4 cbr 1000 ------- 0 1.0 7.0 70 70
- 2.160085 3 4 cbr 1000 ------- 0 1.0 7.0 70 70
r 2.162165 3 4 cbr 1000 ------- 0 1.0 7.0 69 69
h 2.162165 4 9 cbr 1000 ------- 0 1.0 7.0 69 69
+ 2.164 1 8 cbr 1000 ------- 0 1.0 7.0 108 108
- 2.164 1 8 cbr 1000 ------- 0 1.0 7.0 108 108
+ 2.166165 4 9 cbr 1000 ------- 0 1.0 7.0 32 32
- 2.166165 4 9 cbr 1000 ------- 0 1.0 7.0 32 32
r 2.168085 8 3 cbr 1000 ------- 0 1.0 7.0 71 71
+ 2.168085 3 4 cbr 1000 ------- 0 1.0 7.0 71 71
- 2.168085 3 4 cbr 1000 ------- 0 1.0 7.0 71 71
r 2.170165 3 4 cbr 1000 ------- 0 1.0 7.0 70 70
h 2.170165 4 9 cbr 1000 ------- 0 1.0 7.0 70 70
+ 2.172 1 8 cbr 1000 ------- 0 1.0 7.0 109 109
- 2.172 1 8 cbr 1000 ------- 0 1.0 7.0 109 109
+ 2.174165 4 9 cbr 1000 ------- 0 1.0 7.0 33 33
- 2.174165 4 9 cbr 1000 ------- 0 1.0 7.0 33 33
r 2.176085 8 3 cbr 1000 ------- 0 1.0 7.0 72 72
d 2.176085 3 4 cbr 1000 ------- 0 1.0 7.0 72 72
r 2.178165 3 4 cbr 1000 ------- 0 1.0 7.0 71 71
h 2.178165 4 9 cbr 1000 ------- 0 1.0 7.0 71 71
+ 2.18 1 8 cbr 1000 ------- 0 1.0 7.0 110 110
- 2.18 1 8 cbr 1000 ------- 0 1.0 7.0 110 110
+ 2.182165 4 9 cbr 1000 ------- 0 1.0 7.0 34 34
- 2.182165 4 9 cbr 1000 ------- 0 1.0 7.0 34 34
r 2.184085 8 3 cbr 1000 ------- 0 1.0 7.0 73 73
d 2.184085 3 4 cbr 1000 ------- 0 1.0 7.0 73 73
+ 2.188 1 8 cbr 1000 ------- 0 1.0 7.0 111 111
- 2.188 1 8 cbr 1000 ------- 0 1.0 7.0 111 111
r 2.192085 8 3 cbr 1000 ------- 0 1.0 7.0 74 74
+ 2.192085 3 4 cbr 1000 ------- 0 1.0 7.0 74 74
- 2.192085 3 4 cbr 1000 ------- 0 1.0 7.0 74 74
+ 2.196 1 8 cbr 1000 ------- 0 1.0 7.0 112 112
- 2.196 1 8 cbr 1000 ------- 0 1.0 7.0 112 112
r 2.200085 8 3 cbr 1000 ------- 0 1.0 7.0 75 75
+ 2.200085 3 4 cbr 1000 ------- 0 1.0 7.0 75 75
- 2.200085 3 4 cbr 1000 ------- 0 1.0 7.0 75 75
r 2.202165 3 4 cbr 1000 ------- 0 1.0 7.0 74 74
h 2.202165 4 9 cbr 1000 ------- 0 1.0 7.0 74 74
+ 2.204 1 8 cbr 1000 ------- 0 1.0 7.0 113 113
- 2.204 1 8 cbr 1000 ------- 0 1.0 7.0 113 113
r 2.208085 8 3 cbr 1000 ------- 0 1.0 7.0 76 76
+ 2.208085 3 4 cbr 1000 ------- 0 1.0 7.0 76 76
- 2.208085 3 4 cbr 1000 ------- 0 1.0 7.0 76 76
r 2.210165 3 4 cbr 1000 ------- 0 1.0 7.0 75 75
h 2.210165 4 9 cbr 1000 ------- 0 1.0 7.0 75 75
+ 2.212 1 8 cbr 1000 ------- 0 1.0 7.0 114 114
- 2.212 1 8 cbr 1000 ------- 0 1.0 7.0 114 114
r 2.216085 8 3 cbr 1000 ------- 0 1.0 7.0 77 77
+ 2.216085 3 4 cbr 1000 ------- 0 1.0 7.0 77 77