V -t * -v 1.0a5 -a 0
A -t * -n 1 -p 0 -o 0x7fffffff -c 30 -a 1
A -t * -h 1 -m 1073741823 -s 0
n -t * -a 0 -s 0 -S UP -v circle -c black -i black
n -t * -a 1 -s 1 -S UP -v circle -c black -i black
n -t * -a 2 -s 2 -S UP -v circle -c black -i black
n -t * -a 3 -s 3 -S UP -v circle -c black -i black
X -t * -n 4 -r 100Mb -D 300ms -o left
L -t * -s 4 -d 0 -o up
L -t * -s 4 -d 1 -o down
L -t * -s 4 -d 2 -o up
L -t * -s 4 -d 3 -o down
h -t 1 -s 0 -d 4 -p tcp -e 40 -c 0 -i 0 -a 0 -x {0.0 3.0 0 ------- null}
+ -t 1.3 -s 0 -d 4 -p tcp -e 40 -c 0 -i 0 -a 0 -x {0.0 3.0 0 ------- null}
- -t 1.3 -s 0 -d 4 -p tcp -e 40 -c 0 -i 0 -a 0 -x {0.0 3.0 0 ------- null}
h -t 1.3 -s 0 -d 4 -p tcp -e 40 -c 0 -i 0 -a 0 -x {0.0 3.0 -1 ------- null}
r -t 1.60000912 -s 4 -d 3 -p tcp -e 40 -c 0 -i 0 -a 0 -x {0.0 3.0 0 ------- null}
h -t 1.60000912 -s 3 -d 4 -p ack -e 40 -c 0 -i 1 -a 0 -x {3.0 0.0 0 ------- null}
+ -t 1.90000912 -s 3 -d 4 -p ack -e 40 -c 0 -i 1 -a 0 -x {3.0 0.0 0 ------- null}
- -t 1.90000912 -s 3 -d 4 -p ack -e 40 -c 0 -i 1 -a 0 -x {3.0 0.0 0 ------- null}
h -t 1.90000912 -s 3 -d 4 -p ack -e 40 -c 0 -i 1 -a 0 -x {3.0 0.0 -1 ------- null}
h -t 2 -s 1 -d 4 -p tcp -e 40 -c 0 -i 2 -a 0 -x {1.0 2.0 0 ------- null}
r -t 2.20001824 -s 4 -d 0 -p ack -e 40 -c 0 -i 1 -a 0 -x {3.0 0.0 0 ------- null}
h -t 2.20001824 -s 0 -d 4 -p tcp -e 1540 -c 0 -i 3 -a 0 -x {0.0 3.0 1 ------- null}
h -t 2.20001824 -s 0 -d 4 -p tcp -e 1540 -c 0 -i 4 -a 0 -x {0.0 3.0 2 ------- null}
+ -t 2.3 -s 1 -d 4 -p tcp -e 40 -c 0 -i 2 -a 0 -x {1.0 2.0 0 ------- null}
- -t 2.3 -s 1 -d 4 -p tcp -e 40 -c 0 -i 2 -a 0 -x {1.0 2.0 0 ------- null}
h -t 2.3 -s 1 -d 4 -p tcp -e 40 -c 0 -i 2 -a 0 -x {1.0 2.0 -1 ------- null}
+ -t 2.50001824 -s 0 -d 4 -p tcp -e 1540 -c 0 -i 3 -a 0 -x {0.0 3.0 1 ------- null}
- -t 2.50001824 -s 0 -d 4 -p tcp -e 1540 -c 0 -i 3 -a 0 -x {0.0 3.0 1 ------- null}
h -t 2.50001824 -s 0 -d 4 -p tcp -e 1540 -c 0 -i 3 -a 0 -x {0.0 3.0 -1 ------- null}
+ -t 2.50001824 -s 0 -d 4 -p tcp -e 1540 -c 0 -i 4 -a 0 -x {0.0 3.0 2 ------- null}
- -t 2.50014352 -s 0 -d 4 -p tcp -e 1540 -c 0 -i 4 -a 0 -x {0.0 3.0 2 ------- null}
h -t 2.50014352 -s 0 -d 4 -p tcp -e 1540 -c 0 -i 4 -a 0 -x {0.0 3.0 -1 ------- null}
r -t 2.60000912 -s 4 -d 2 -p tcp -e 40 -c 0 -i 2 -a 0 -x {1.0 2.0 0 ------- null}
h -t 2.60000912 -s 2 -d 4 -p ack -e 40 -c 0 -i 5 -a 0 -x {2.0 1.0 0 ------- null}
r -t 2.80014656 -s 4 -d 3 -p tcp -e 1540 -c 0 -i 3 -a 0 -x {0.0 3.0 1 ------- null}
h -t 2.80014656 -s 3 -d 4 -p ack -e 40 -c 0 -i 6 -a 0 -x {3.0 0.0 1 ------- null}
r -t 2.80027184 -s 4 -d 3 -p tcp -e 1540 -c 0 -i 4 -a 0 -x {0.0 3.0 2 ------- null}
h -t 2.80027184 -s 3 -d 4 -p ack -e 40 -c 0 -i 7 -a 0 -x {3.0 0.0 2 ------- null}
+ -t 2.90000912 -s 2 -d 4 -p ack -e 40 -c 0 -i 5 -a 0 -x {2.0 1.0 0 ------- null}
- -t 2.90000912 -s 2 -d 4 -p ack -e 40 -c 0 -i 5 -a 0 -x {2.0 1.0 0 ------- null}
h -t 2.90000912 -s 2 -d 4 -p ack -e 40 -c 0 -i 5 -a 0 -x {2.0 1.0 -1 ------- null}
+ -t 3.10014656 -s 3 -d 4 -p ack -e 40 -c 0 -i 6 -a 0 -x {3.0 0.0 1 ------- null}
- -t 3.10014656 -s 3 -d 4 -p ack -e 40 -c 0 -i 6 -a 0 -x {3.0 0.0 1 ------- null}
h -t 3.10014656 -s 3 -d 4 -p ack -e 40 -c 0 -i 6 -a 0 -x {3.0 0.0 -1 ------- null}
+ -t 3.10027184 -s 3 -d 4 -p ack -e 40 -c 0 -i 7 -a 0 -x {3.0 0.0 2 ------- null}
- -t 3.10027184 -s 3 -d 4 -p ack -e 40 -c 0 -i 7 -a 0 -x {3.0 0.0 2 ------- null}
h -t 3.10027184 -s 3 -d 4 -p ack -e 40 -c 0 -i 7 -a 0 -x {3.0 0.0 -1 ------- null}
r -t 3.20001824 -s 4 -d 1 -p ack -e 40 -c 0 -i 5 -a 0 -x {2.0 1.0 0 ------- null}
h -t 3.20001824 -s 1 -d 4 -p tcp -e 1540 -c 0 -i 8 -a 0 -x {1.0 2.0 1 ------- null}
h -t 3.20001824 -s 1 -d 4 -p tcp -e 1540 -c 0 -i 9 -a 0 -x {1.0 2.0 2 ------- null}
r -t 3.40015568 -s 4 -d 0 -p ack -e 40 -c 0 -i 6 -a 0 -x {3.0 0.0 1 ------- null}
h -t 3.40015568 -s 0 -d 4 -p tcp -e 1540 -c 0 -i 10 -a 0 -x {0.0 3.0 3 ------- null}
h -t 3.40015568 -s 0 -d 4 -p tcp -e 1540 -c 0 -i 11 -a 0 -x {0.0 3.0 4 ------- null}
r -t 3.40028096 -s 4 -d 0 -p ack -e 40 -c 0 -i 7 -a 0 -x {3.0 0.0 2 ------- null}
h -t 3.40028096 -s 0 -d 4 -p tcp -e 1540 -c 0 -i 12 -a 0 -x {0.0 3.0 5 ------- null}
h -t 3.40028096 -s 0 -d 4 -p tcp -e 1540 -c 0 -i 13 -a 0 -x {0.0 3.0 6 ------- null}
+ -t 3.50001824 -s 1 -d 4 -p tcp -e 1540 -c 0 -i 8 -a 0 -x {1.0 2.0 1 ------- null}
- -t 3.50001824 -s 1 -d 4 -p tcp -e 1540 -c 0 -i 8 -a 0 -x {1.0 2.0 1 ------- null}
h -t 3.50001824 -s 1 -d 4 -p tcp -e 1540 -c 0 -i 8 -a 0 -x {1.0 2.0 -1 ------- null}
+ -t 3.50001824 -s 1 -d 4 -p tcp -e 1540 -c 0 -i 9 -a 0 -x {1.0 2.0 2 ------- null}
- -t 3.50014352 -s 1 -d 4 -p tcp -e 1540 -c 0 -i 9 -a 0 -x {1.0 2.0 2 ------- null}
h -t 3.50014352 -s 1 -d 4 -p tcp -e 1540 -c 0 -i 9 -a 0 -x {1.0 2.0 -1 ------- null}
+ -t 3.70015568 -s 0 -d 4 -p tcp -e 1540 -c 0 -i 10 -a 0 -x {0.0 3.0 3 ------- null}
- -t 3.70015568 -s 0 -d 4 -p tcp -e 1540 -c 0 -i 10 -a 0 -x {0.0 3.0 3 ------- null}
h -t 3.70015568 -s 0 -d 4 -p tcp -e 1540 -c 0 -i 10 -a 0 -x {0.0 3.0 -1 ------- null}
+ -t 3.70015568 -s 0 -d 4 -p tcp -e 1540 -c 0 -i 11 -a 0 -x {0.0 3.0 4 ------- null}
+ -t 3.70028096 -s 0 -d 4 -p tcp -e 1540 -c 0 -i 12 -a 0 -x {0.0 3.0 5 ------- null}
+ -t 3.70028096 -s 0 -d 4 -p tcp -e 1540 -c 0 -i 13 -a 0 -x {0.0 3.0 6 ------- null}
- -t 3.70028096 -s 0 -d 4 -p tcp -e 1540 -c 0 -i 11 -a 0 -x {0.0 3.0 4 ------- null}
h -t 3.70028096 -s 0 -d 4 -p tcp -e 1540 -c 0 -i 11 -a 0 -x {0.0 3.0 -1 ------- null}
- -t 3.70040624 -s 0 -d 4 -p tcp -e 1540 -c 0 -i 12 -a 0 -x {0.0 3.0 5 ------- null}
h -t 3.70040624 -s 0 -d 4 -p tcp -e 1540 -c 0 -i 12 -a 0 -x {0.0 3.0 -1 ------- null}
- -t 3.70053152 -s 0 -d 4 -p tcp -e 1540 -c 0 -i 13 -a 0 -x {0.0 3.0 6 ------- null}
h -t 3.70053152 -s 0 -d 4 -p tcp -e 1540 -c 0 -i 13 -a 0 -x {0.0 3.0 -1 ------- null}
r -t 3.80014656 -s 4 -d 2 -p tcp -e 1540 -c 0 -i 8 -a 0 -x {1.0 2.0 1 ------- null}
h -t 3.80014656 -s 2 -d 4 -p ack -e 40 -c 0 -i 14 -a 0 -x {2.0 1.0 1 ------- null}
r -t 3.80027184 -s 4 -d 2 -p tcp -e 1540 -c 0 -i 9 -a 0 -x {1.0 2.0 2 ------- null}
h -t 3.80027184 -s 2 -d 4 -p ack -e 40 -c 0 -i 15 -a 0 -x {2.0 1.0 2 ------- null}
r -t 4.000284 -s 4 -d 3 -p tcp -e 1540 -c 0 -i 10 -a 0 -x {0.0 3.0 3 ------- null}
h -t 4.000284 -s 3 -d 4 -p ack -e 40 -c 0 -i 16 -a 0 -x {3.0 0.0 3 ------- null}
r -t 4.00040928 -s 4 -d 3 -p tcp -e 1540 -c 0 -i 11 -a 0 -x {0.0 3.0 4 ------- null}
h -t 4.00040928 -s 3 -d 4 -p ack -e 40 -c 0 -i 17 -a 0 -x {3.0 0.0 4 ------- null}
r -t 4.00053456 -s 4 -d 3 -p tcp -e 1540 -c 0 -i 12 -a 0 -x {0.0 3.0 5 ------- null}
h -t 4.00053456 -s 3 -d 4 -p ack -e 40 -c 0 -i 18 -a 0 -x {3.0 0.0 5 ------- null}
r -t 4.00065984 -s 4 -d 3 -p tcp -e 1540 -c 0 -i 13 -a 0 -x {0.0 3.0 6 ------- null}
h -t 4.00065984 -s 3 -d 4 -p ack -e 40 -c 0 -i 19 -a 0 -x {3.0 0.0 6 ------- null}
+ -t 4.10014656 -s 2 -d 4 -p ack -e 40 -c 0 -i 14 -a 0 -x {2.0 1.0 1 ------- null}
- -t 4.10014656 -s 2 -d 4 -p ack -e 40 -c 0 -i 14 -a 0 -x {2.0 1.0 1 ------- null}
h -t 4.10014656 -s 2 -d 4 -p ack -e 40 -c 0 -i 14 -a 0 -x {2.0 1.0 -1 ------- null}
+ -t 4.10027184 -s 2 -d 4 -p ack -e 40 -c 0 -i 15 -a 0 -x {2.0 1.0 2 ------- null}
- -t 4.10027184 -s 2 -d 4 -p ack -e 40 -c 0 -i 15 -a 0 -x {2.0 1.0 2 ------- null}
h -t 4.10027184 -s 2 -d 4 -p ack -e 40 -c 0 -i 15 -a 0 -x {2.0 1.0 -1 ------- null}
+ -t 4.300284 -s 3 -d 4 -p ack -e 40 -c 0 -i 16 -a 0 -x {3.0 0.0 3 ------- null}
- -t 4.300284 -s 3 -d 4 -p ack -e 40 -c 0 -i 16 -a 0 -x {3.0 0.0 3 ------- null}
h -t 4.300284 -s 3 -d 4 -p ack -e 40 -c 0 -i 16 -a 0 -x {3.0 0.0 -1 ------- null}
+ -t 4.30040928 -s 3 -d 4 -p ack -e 40 -c 0 -i 17 -a 0 -x {3.0 0.0 4 ------- null}
- -t 4.30040928 -s 3 -d 4 -p ack -e 40 -c 0 -i 17 -a 0 -x {3.0 0.0 4 ------- null}
h -t 4.30040928 -s 3 -d 4 -p ack -e 40 -c 0 -i 17 -a 0 -x {3.0 0.0 -1 ------- null}
+ -t 4.30053456 -s 3 -d 4 -p ack -e 40 -c 0 -i 18 -a 0 -x {3.0 0.0 5 ------- null}
- -t 4.30053456 -s 3 -d 4 -p ack -e 40 -c 0 -i 18 -a 0 -x {3.0 0.0 5 ------- null}
h -t 4.30053456 -s 3 -d 4 -p ack -e 40 -c 0 -i 18 -a 0 -x {3.0 0.0 -1 ------- null}
+ -t 4.30065984 -s 3 -d 4 -p ack -e 40 -c 0 -i 19 -a 0 -x {3.0 0.0 6 ------- null}
- -t 4.30065984 -s 3 -d 4 -p ack -e 40 -c 0 -i 19 -a 0 -x {3.0 0.0 6 ------- null}
h -t 4.30065984 -s 3 -d 4 -p ack -e 40 -c 0 -i 19 -a 0 -x {3.0 0.0 -1 ------- null}
r -t 4.40015568 -s 4 -d 1 -p ack -e 40 -c 0 -i 14 -a 0 -x {2.0 1.0 1 ------- null}
h -t 4.40015568 -s 1 -d 4 -p tcp -e 1540 -c 0 -i 20 -a 0 -x {1.0 2.0 3 ------- null}
h -t 4.40015568 -s 1 -d 4 -p tcp -e 1540 -c 0 -i 21 -a 0 -x {1.0 2.0 4 ------- null}
r -t 4.40028096 -s 4 -d 1 -p ack -e 40 -c 0 -i 15 -a 0 -x {2.0 1.0 2 ------- null}
h -t 4.40028096 -s 1 -d 4 -p tcp -e 1540 -c 0 -i 22 -a 0 -x {1.0 2.0 5 ------- null}
h -t 4.40028096 -s 1 -d 4 -p tcp -e 1540 -c 0 -i 23 -a 0 -x {1.0 2.0 6 ------- null}
r -t 4.60029312 -s 4 -d 0 -p ack -e 40 -c 0 -i 16 -a 0 -x {3.0 0.0 3 ------- null}
h -t 4.60029312 -s 0 -d 4 -p tcp -e 1540 -c 0 -i 24 -a 0 -x {0.0 3.0 7 ------- null}
h -t 4.60029312 -s 0 -d 4 -p tcp -e 1540 -c 0 -i 25 -a 0 -x {0.0 3.0 8 ------- null}
r -t 4.6004184 -s 4 -d 0 -p ack -e 40 -c 0 -i 17 -a 0 -x {3.0 0.0 4 ------- null}
h -t 4.6004184 -s 0 -d 4 -p tcp -e 1540 -c 0 -i 26 -a 0 -x {0.0 3.0 9 ------- null}
h -t 4.6004184 -s 0 -d 4 -p tcp -e 1540 -c 0 -i 27 -a 0 -x {0.0 3.0 10 ------- null}
r -t 4.60054368 -s 4 -d 0 -p ack -e 40 -c 0 -i 18 -a 0 -x {3.0 0.0 5 ------- null}
h -t 4.60054368 -s 0 -d 4 -p tcp -e 1540 -c 0 -i 28 -a 0 -x {0.0 3.0 11 ------- null}
h -t 4.60054368 -s 0 -d 4 -p tcp -e 1540 -c 0 -i 29 -a 0 -x {0.0 3.0 12 ------- null}
r -t 4.60066896 -s 4 -d 0 -p ack -e 40 -c 0 -i 19 -a 0 -x {3.0 0.0 6 ------- null}
h -t 4.60066896 -s 0 -d 4 -p tcp -e 1540 -c 0 -i 30 -a 0 -x {0.0 3.0 13 ------- null}
h -t 4.60066896 -s 0 -d 4 -p tcp -e 1540 -c 0 -i 31 -a 0 -x {0.0 3.0 14 ------- null}
+ -t 4.70015568 -s 1 -d 4 -p tcp -e 1540 -c 0 -i 20 -a 0 -x {1.0 2.0 3 ------- null}
- -t 4.70015568 -s 1 -d 4 -p tcp -e 1540 -c 0 -i 20 -a 0 -x {1.0 2.0 3 ------- null}
h -t 4.70015568 -s 1 -d 4 -p tcp -e 1540 -c 0 -i 20 -a 0 -x {1.0 2.0 -1 ------- null}
+ -t 4.70015568 -s 1 -d 4 -p tcp -e 1540 -c 0 -i 21 -a 0 -x {1.0 2.0 4 ------- null}
+ -t 4.70028096 -s 1 -d 4 -p tcp -e 1540 -c 0 -i 22 -a 0 -x {1.0 2.0 5 ------- null}
+ -t 4.70028096 -s 1 -d 4 -p tcp -e 1540 -c 0 -i 23 -a 0 -x {1.0 2.0 6 ------- null}
- -t 4.70028096 -s 1 -d 4 -p tcp -e 1540 -c 0 -i 21 -a 0 -x {1.0 2.0 4 ------- null}
h -t 4.70028096 -s 1 -d 4 -p tcp -e 1540 -c 0 -i 21 -a 0 -x {1.0 2.0 -1 ------- null}
- -t 4.70040624 -s 1 -d 4 -p tcp -e 1540 -c 0 -i 22 -a 0 -x {1.0 2.0 5 ------- null}
h -t 4.70040624 -s 1 -d 4 -p tcp -e 1540 -c 0 -i 22 -a 0 -x {1.0 2.0 -1 ------- null}
- -t 4.70053152 -s 1 -d 4 -p tcp -e 1540 -c 0 -i 23 -a 0 -x {1.0 2.0 6 ------- null}
h -t 4.70053152 -s 1 -d 4 -p tcp -e 1540 -c 0 -i 23 -a 0 -x {1.0 2.0 -1 ------- null}
+ -t 4.90029312 -s 0 -d 4 -p tcp -e 1540 -c 0 -i 24 -a 0 -x {0.0 3.0 7 ------- null}
- -t 4.90029312 -s 0 -d 4 -p tcp -e 1540 -c 0 -i 24 -a 0 -x {0.0 3.0 7 ------- null}
h -t 4.90029312 -s 0 -d 4 -p tcp -e 1540 -c 0 -i 24 -a 0 -x {0.0 3.0 -1 ------- null}
+ -t 4.90029312 -s 0 -d 4 -p tcp -e 1540 -c 0 -i 25 -a 0 -x {0.0 3.0 8 ------- null}
+ -t 4.9004184 -s 0 -d 4 -p tcp -e 1540 -c 0 -i 26 -a 0 -x {0.0 3.0 9 ------- null}
+ -t 4.9004184 -s 0 -d 4 -p tcp -e 1540 -c 0 -i 27 -a 0 -x {0.0 3.0 10 ------- null}
- -t 4.9004184 -s 0 -d 4 -p tcp -e 1540 -c 0 -i 25 -a 0 -x {0.0 3.0 8 ------- null}
h -t 4.9004184 -s 0 -d 4 -p tcp -e 1540 -c 0 -i 25 -a 0 -x {0.0 3.0 -1 ------- null}
+ -t 4.90054368 -s 0 -d 4 -p tcp -e 1540 -c 0 -i 28 -a 0 -x {0.0 3.0 11 ------- null}
+ -t 4.90054368 -s 0 -d 4 -p tcp -e 1540 -c 0 -i 29 -a 0 -x {0.0 3.0 12 ------- null}
- -t 4.90054368 -s 0 -d 4 -p tcp -e 1540 -c 0 -i 26 -a 0 -x {0.0 3.0 9 ------- null}
h -t 4.90054368 -s 0 -d 4 -p tcp -e 1540 -c 0 -i 26 -a 0 -x {0.0 3.0 -1 ------- null}
+ -t 4.90066896 -s 0 -d 4 -p tcp -e 1540 -c 0 -i 30 -a 0 -x {0.0 3.0 13 ------- null}
+ -t 4.90066896 -s 0 -d 4 -p tcp -e 1540 -c 0 -i 31 -a 0 -x {0.0 3.0 14 ------- null}
- -t 4.90066896 -s 0 -d 4 -p tcp -e 1540 -c 0 -i 27 -a 0 -x {0.0 3.0 10 ------- null}
h -t 4.90066896 -s 0 -d 4 -p tcp -e 1540 -c 0 -i 27 -a 0 -x {0.0 3.0 -1 ------- null}
- -t 4.90079424 -s 0 -d 4 -p tcp -e 1540 -c 0 -i 28 -a 0 -x {0.0 3.0 11 ------- null}
h -t 4.90079424 -s 0 -d 4 -p tcp -e 1540 -c 0 -i 28 -a 0 -x {0.0 3.0 -1 ------- null}
- -t 4.90091952 -s 0 -d 4 -p tcp -e 1540 -c 0 -i 29 -a 0 -x {0.0 3.0 12 ------- null}
h -t 4.90091952 -s 0 -d 4 -p tcp -e 1540 -c 0 -i 29 -a 0 -x {0.0 3.0 -1 ------- null}
- -t 4.9010448 -s 0 -d 4 -p tcp -e 1540 -c 0 -i 30 -a 0 -x {0.0 3.0 13 ------- null}
h -t 4.9010448 -s 0 -d 4 -p tcp -e 1540 -c 0 -i 30 -a 0 -x {0.0 3.0 -1 ------- null}
- -t 4.90117008 -s 0 -d 4 -p tcp -e 1540 -c 0 -i 31 -a 0 -x {0.0 3.0 14 ------- null}
h -t 4.90117008 -s 0 -d 4 -p tcp -e 1540 -c 0 -i 31 -a 0 -x {0.0 3.0 -1 ------- null}
r -t 5.000284 -s 4 -d 2 -p tcp -e 1540 -c 0 -i 20 -a 0 -x {1.0 2.0 3 ------- null}
h -t 5.000284 -s 2 -d 4 -p ack -e 40 -c 0 -i 32 -a 0 -x {2.0 1.0 3 ------- null}
r -t 5.00040928 -s 4 -d 2 -p tcp -e 1540 -c 0 -i 21 -a 0 -x {1.0 2.0 4 ------- null}
h -t 5.00040928 -s 2 -d 4 -p ack -e 40 -c 0 -i 33 -a 0 -x {2.0 1.0 4 ------- null}
r -t 5.00053456 -s 4 -d 2 -p tcp -e 1540 -c 0 -i 22 -a 0 -x {1.0 2.0 5 ------- null}
h -t 5.00053456 -s 2 -d 4 -p ack -e 40 -c 0 -i 34 -a 0 -x {2.0 1.0 5 ------- null}
r -t 5.00065984 -s 4 -d 2 -p tcp -e 1540 -c 0 -i 23 -a 0 -x {1.0 2.0 6 ------- null}
h -t 5.00065984 -s 2 -d 4 -p ack -e 40 -c 0 -i 35 -a 0 -x {2.0 1.0 6 ------- null}
r -t 5.20042144 -s 4 -d 3 -p tcp -e 1540 -c 0 -i 24 -a 0 -x {0.0 3.0 7 ------- null}
h -t 5.20042144 -s 3 -d 4 -p ack -e 40 -c 0 -i 36 -a 0 -x {3.0 0.0 7 ------- null}
r -t 5.20054672 -s 4 -d 3 -p tcp -e 1540 -c 0 -i 25 -a 0 -x {0.0 3.0 8 ------- null}
h -t 5.20054672 -s 3 -d 4 -p ack -e 40 -c 0 -i 37 -a 0 -x {3.0 0.0 8 ------- null}
r -t 5.200672 -s 4 -d 3 -p tcp -e 1540 -c 0 -i 26 -a 0 -x {0.0 3.0 9 ------- null}
h -t 5.200672 -s 3 -d 4 -p ack -e 40 -c 0 -i 38 -a 0 -x {3.0 0.0 9 ------- null}
r -t 5.20079728 -s 4 -d 3 -p tcp -e 1540 -c 0 -i 27 -a 0 -x {0.0 3.0 10 ------- null}
h -t 5.20079728 -s 3 -d 4 -p ack -e 40 -c 0 -i 39 -a 0 -x {3.0 0.0 10 ------- null}
r -t 5.20092256 -s 4 -d 3 -p tcp -e 1540 -c 0 -i 28 -a 0 -x {0.0 3.0 11 ------- null}
h -t 5.20092256 -s 3 -d 4 -p ack -e 40 -c 0 -i 40 -a 0 -x {3.0 0.0 11 ------- null}
r -t 5.20104784 -s 4 -d 3 -p tcp -e 1540 -c 0 -i 29 -a 0 -x {0.0 3.0 12 ------- null}
h -t 5.20104784 -s 3 -d 4 -p ack -e 40 -c 0 -i 41 -a 0 -x {3.0 0.0 12 ------- null}
r -t 5.20117312 -s 4 -d 3 -p tcp -e 1540 -c 0 -i 30 -a 0 -x {0.0 3.0 13 ------- null}
h -t 5.20117312 -s 3 -d 4 -p ack -e 40 -c 0 -i 42 -a 0 -x {3.0 0.0 13 ------- null}
r -t 5.2012984 -s 4 -d 3 -p tcp -e 1540 -c 0 -i 31 -a 0 -x {0.0 3.0 14 ------- null}
h -t 5.2012984 -s 3 -d 4 -p ack -e 40 -c 0 -i 43 -a 0 -x {3.0 0.0 14 ------- null}
+ -t 5.300284 -s 2 -d 4 -p ack -e 40 -c 0 -i 32 -a 0 -x {2.0 1.0 3 ------- null}
- -t 5.300284 -s 2 -d 4 -p ack -e 40 -c 0 -i 32 -a 0 -x {2.0 1.0 3 ------- null}
h -t 5.300284 -s 2 -d 4 -p ack -e 40 -c 0 -i 32 -a 0 -x {2.0 1.0 -1 ------- null}
+ -t 5.30040928 -s 2 -d 4 -p ack -e 40 -c 0 -i 33 -a 0 -x {2.0 1.0 4 ------- null}
- -t 5.30040928 -s 2 -d 4 -p ack -e 40 -c 0 -i 33 -a 0 -x {2.0 1.0 4 ------- null}
h -t 5.30040928 -s 2 -d 4 -p ack -e 40 -c 0 -i 33 -a 0 -x {2.0 1.0 -1 ------- null}
+ -t 5.30053456 -s 2 -d 4 -p ack -e 40 -c 0 -i 34 -a 0 -x {2.0 1.0 5 ------- null}
- -t 5.30053456 -s 2 -d 4 -p ack -e 40 -c 0 -i 34 -a 0 -x {2.0 1.0 5 ------- null}
h -t 5.30053456 -s 2 -d 4 -p ack -e 40 -c 0 -i 34 -a 0 -x {2.0 1.0 -1 ------- null}
+ -t 5.30065984 -s 2 -d 4 -p ack -e 40 -c 0 -i 35 -a 0 -x {2.0 1.0 6 ------- null}
- -t 5.30065984 -s 2 -d 4 -p ack -e 40 -c 0 -i 35 -a 0 -x {2.0 1.0 6 ------- null}
h -t 5.30065984 -s 2 -d 4 -p ack -e 40 -c 0 -i 35 -a 0 -x {2.0 1.0 -1 ------- null}
+ -t 5.50042144 -s 3 -d 4 -p ack -e 40 -c 0 -i 36 -a 0 -x {3.0 0.0 7 ------- null}
- -t 5.50042144 -s 3 -d 4 -p ack -e 40 -c 0 -i 36 -a 0 -x {3.0 0.0 7 ------- null}
h -t 5.50042144 -s 3 -d 4 -p ack -e 40 -c 0 -i 36 -a 0 -x {3.0 0.0 -1 ------- null}
+ -t 5.50054672 -s 3 -d 4 -p ack -e 40 -c 0 -i 37 -a 0 -x {3.0 0.0 8 ------- null}
- -t 5.50054672 -s 3 -d 4 -p ack -e 40 -c 0 -i 37 -a 0 -x {3.0 0.0 8 ------- null}
h -t 5.50054672 -s 3 -d 4 -p ack -e 40 -c 0 -i 37 -a 0 -x {3.0 0.0 -1 ------- null}
+ -t 5.500672 -s 3 -d 4 -p ack -e 40 -c 0 -i 38 -a 0 -x {3.0 0.0 9 ------- null}
- -t 5.500672 -s 3 -d 4 -p ack -e 40 -c 0 -i 38 -a 0 -x {3.0 0.0 9 ------- null}
h -t 5.500672 -s 3 -d 4 -p ack -e 40 -c 0 -i 38 -a 0 -x {3.0 0.0 -1 ------- null}
+ -t 5.50079728 -s 3 -d 4 -p ack -e 40 -c 0 -i 39 -a 0 -x {3.0 0.0 10 ------- null}
- -t 5.50079728 -s 3 -d 4 -p ack -e 40 -c 0 -i 39 -a 0 -x {3.0 0.0 10 ------- null}
h -t 5.50079728 -s 3 -d 4 -p ack -e 40 -c 0 -i 39 -a 0 -x {3.0 0.0 -1 ------- null}
+ -t 5.50092256 -s 3 -d 4 -p ack -e 40 -c 0 -i 40 -a 0 -x {3.0 0.0 11 ------- null}
- -t 5.50092256 -s 3 -d 4 -p ack -e 40 -c 0 -i 40 -a 0 -x {3.0 0.0 11 ------- null}
h -t 5.50092256 -s 3 -d 4 -p ack -e 40 -c 0 -i 40 -a 0 -x {3.0 0.0 -1 ------- null}
+ -t 5.50104784 -s 3 -d 4 -p ack -e 40 -c 0 -i 41 -a 0 -x {3.0 0.0 12 ------- null}
- -t 5.50104784 -s 3 -d 4 -p ack -e 40 -c 0 -i 41 -a 0 -x {3.0 0.0 12 ------- null}
h -t 5.50104784 -s 3 -d 4 -p ack -e 40 -c 0 -i 41 -a 0 -x {3.0 0.0 -1 ------- null}
+ -t 5.50117312 -s 3 -d 4 -p ack -e 40 -c 0 -i 42 -a 0 -x {3.0 0.0 13 ------- null}
- -t 5.50117312 -s 3 -d 4 -p ack -e 40 -c 0 -i 42 -a 0 -x {3.0 0.0 13 ------- null}
h -t 5.50117312 -s 3 -d 4 -p ack -e 40 -c 0 -i 42 -a 0 -x {3.0 0.0 -1 ------- null}
+ -t 5.5012984 -s 3 -d 4 -p ack -e 40 -c 0 -i 43 -a 0 -x {3.0 0.0 14 ------- null}
- -t 5.5012984 -s 3 -d 4 -p ack -e 40 -c 0 -i 43 -a 0 -x {3.0 0.0 14 ------- null}
h -t 5.5012984 -s 3 -d 4 -p ack -e 40 -c 0 -i 43 -a 0 -x {3.0 0.0 -1 ------- null}
r -t 5.60029312 -s 4 -d 1 -p ack -e 40 -c 0 -i 32 -a 0 -x {2.0 1.0 3 ------- null}
h -t 5.60029312 -s 1 -d 4 -p tcp -e 1540 -c 0 -i 44 -a 0 -x {1.0 2.0 7 ------- null}
h -t 5.60029312 -s 1 -d 4 -p tcp -e 1540 -c 0 -i 45 -a 0 -x {1.0 2.0 8 ------- null}
r -t 5.6004184 -s 4 -d 1 -p ack -e 40 -c 0 -i 33 -a 0 -x {2.0 1.0 4 ------- null}
h -t 5.6004184 -s 1 -d 4 -p tcp -e 1540 -c 0 -i 46 -a 0 -x {1.0 2.0 9 ------- null}
h -t 5.6004184 -s 1 -d 4 -p tcp -e 1540 -c 0 -i 47 -a 0 -x {1.0 2.0 10 ------- null}
r -t 5.60054368 -s 4 -d 1 -p ack -e 40 -c 0 -i 34 -a 0 -x {2.0 1.0 5 ------- null}
h -t 5.60054368 -s 1 -d 4 -p tcp -e 1540 -c 0 -i 48 -a 0 -x {1.0 2.0 11 ------- null}
h -t 5.60054368 -s 1 -d 4 -p tcp -e 1540 -c 0 -i 49 -a 0 -x {1.0 2.0 12 ------- null}
r -t 5.60066896 -s 4 -d 1 -p ack -e 40 -c 0 -i 35 -a 0 -x {2.0 1.0 6 ------- null}
h -t 5.60066896 -s 1 -d 4 -p tcp -e 1540 -c 0 -i 50 -a 0 -x {1.0 2.0 13 ------- null}
h -t 5.60066896 -s 1 -d 4 -p tcp -e 1540 -c 0 -i 51 -a 0 -x {1.0 2.0 14 ------- null}
r -t 5.80043056 -s 4 -d 0 -p ack -e 40 -c 0 -i 36 -a 0 -x {3.0 0.0 7 ------- null}
h -t 5.80043056 -s 0 -d 4 -p tcp -e 1540 -c 0 -i 52 -a 0 -x {0.0 3.0 15 ------- null}
h -t 5.80043056 -s 0 -d 4 -p tcp -e 1540 -c 0 -i 53 -a 0 -x {0.0 3.0 16 ------- null}
r -t 5.80055584 -s 4 -d 0 -p ack -e 40 -c 0 -i 37 -a 0 -x {3.0 0.0 8 ------- null}
h -t 5.80055584 -s 0 -d 4 -p tcp -e 1540 -c 0 -i 54 -a 0 -x {0.0 3.0 17 ------- null}
h -t 5.80055584 -s 0 -d 4 -p tcp -e 1540 -c 0 -i 55 -a 0 -x {0.0 3.0 18 ------- null}
r -t 5.80068112 -s 4 -d 0 -p ack -e 40 -c 0 -i 38 -a 0 -x {3.0 0.0 9 ------- null}
h -t 5.80068112 -s 0 -d 4 -p tcp -e 1540 -c 0 -i 56 -a 0 -x {0.0 3.0 19 ------- null}
h -t 5.80068112 -s 0 -d 4 -p tcp -e 1540 -c 0 -i 57 -a 0 -x {0.0 3.0 20 ------- null}
r -t 5.8008064 -s 4 -d 0 -p ack -e 40 -c 0 -i 39 -a 0 -x {3.0 0.0 10 ------- null}
h -t 5.8008064 -s 0 -d 4 -p tcp -e 1540 -c 0 -i 58 -a 0 -x {0.0 3.0 21 ------- null}
h -t 5.8008064 -s 0 -d 4 -p tcp -e 1540 -c 0 -i 59 -a 0 -x {0.0 3.0 22 ------- null}
r -t 5.80093168 -s 4 -d 0 -p ack -e 40 -c 0 -i 40 -a 0 -x {3.0 0.0 11 ------- null}
h -t 5.80093168 -s 0 -d 4 -p tcp -e 1540 -c 0 -i 60 -a 0 -x {0.0 3.0 23 ------- null}
h -t 5.80093168 -s 0 -d 4 -p tcp -e 1540 -c 0 -i 61 -a 0 -x {0.0 3.0 24 ------- null}
r -t 5.80105696 -s 4 -d 0 -p ack -e 40 -c 0 -i 41 -a 0 -x {3.0 0.0 12 ------- null}
h -t 5.80105696 -s 0 -d 4 -p tcp -e 1540 -c 0 -i 62 -a 0 -x {0.0 3.0 25 ------- null}
h -t 5.80105696 -s 0 -d 4 -p tcp -e 1540 -c 0 -i 63 -a 0 -x {0.0 3.0 26 ------- null}
r -t 5.80118224 -s 4 -d 0 -p ack -e 40 -c 0 -i 42 -a 0 -x {3.0 0.0 13 ------- null}
h -t 5.80118224 -s 0 -d 4 -p tcp -e 1540 -c 0 -i 64 -a 0 -x {0.0 3.0 27 ------- null}
h -t 5.80118224 -s 0 -d 4 -p tcp -e 1540 -c 0 -i 65 -a 0 -x {0.0 3.0 28 ------- null}
r -t 5.80130752 -s 4 -d 0 -p ack -e 40 -c 0 -i 43 -a 0 -x {3.0 0.0 14 ------- null}
h -t 5.80130752 -s 0 -d 4 -p tcp -e 1540 -c 0 -i 66 -a 0 -x {0.0 3.0 29 ------- null}
h -t 5.80130752 -s 0 -d 4 -p tcp -e 1540 -c 0 -i 67 -a 0 -x {0.0 3.0 30 ------- null}
+ -t 5.90029312 -s 1 -d 4 -p tcp -e 1540 -c 0 -i 44 -a 0 -x {1.0 2.0 7 ------- null}
- -t 5.90029312 -s 1 -d 4 -p tcp -e 1540 -c 0 -i 44 -a 0 -x {1.0 2.0 7 ------- null}
h -t 5.90029312 -s 1 -d 4 -p tcp -e 1540 -c 0 -i 44 -a 0 -x {1.0 2.0 -1 ------- null}
+ -t 5.90029312 -s 1 -d 4 -p tcp -e 1540 -c 0 -i 45 -a 0 -x {1.0 2.0 8 ------- null}
+ -t 5.9004184 -s 1 -d 4 -p tcp -e 1540 -c 0 -i 46 -a 0 -x {1.0 2.0 9 ------- null}
+ -t 5.9004184 -s 1 -d 4 -p tcp -e 1540 -c 0 -i 47 -a 0 -x {1.0 2.0 10 ------- null}
- -t 5.9004184 -s 1 -d 4 -p tcp -e 1540 -c 0 -i 45 -a 0 -x {1.0 2.0 8 ------- null}
h -t 5.9004184 -s 1 -d 4 -p tcp -e 1540 -c 0 -i 45 -a 0 -x {1.0 2.0 -1 ------- null}
+ -t 5.90054368 -s 1 -d 4 -p tcp -e 1540 -c 0 -i 48 -a 0 -x {1.0 2.0 11 ------- null}
+ -t 5.90054368 -s 1 -d 4 -p tcp -e 1540 -c 0 -i 49 -a 0 -x {1.0 2.0 12 ------- null}
- -t 5.90054368 -s 1 -d 4 -p tcp -e 1540 -c 0 -i 46 -a 0 -x {1.0 2.0 9 ------- null}
h -t 5.90054368 -s 1 -d 4 -p tcp -e 1540 -c 0 -i 46 -a 0 -x {1.0 2.0 -1 ------- null}
+ -t 5.90066896 -s 1 -d 4 -p tcp -e 1540 -c 0 -i 50 -a 0 -x {1.0 2.0 13 ------- null}
+ -t 5.90066896 -s 1 -d 4 -p tcp -e 1540 -c 0 -i 51 -a 0 -x {1.0 2.0 14 ------- null}
- -t 5.90066896 -s 1 -d 4 -p tcp -e 1540 -c 0 -i 47 -a 0 -x {1.0 2.0 10 ------- null}
h -t 5.90066896 -s 1 -d 4 -p tcp -e 1540 -c 0 -i 47 -a 0 -x {1.0 2.0 -1 ------- null}
- -t 5.90079424 -s 1 -d 4 -p tcp -e 1540 -c 0 -i 48 -a 0 -x {1.0 2.0 11 ------- null}
h -t 5.90079424 -s 1 -d 4 -p tcp -e 1540 -c 0 -i 48 -a 0 -x {1.0 2.0 -1 ------- null}
- -t 5.90091952 -s 1 -d 4 -p tcp -e 1540 -c 0 -i 49 -a 0 -x {1.0 2.0 12 ------- null}
h -t 5.90091952 -s 1 -d 4 -p tcp -e 1540 -c 0 -i 49 -a 0 -x {1.0 2.0 -1 ------- null}
- -t 5.9010448 -s 1 -d 4 -p tcp -e 1540 -c 0 -i 50 -a 0 -x {1.0 2.0 13 ------- null}
h -t 5.9010448 -s 1 -d 4 -p tcp -e 1540 -c 0 -i 50 -a 0 -x {1.0 2.0 -1 ------- null}
- -t 5.90117008 -s 1 -d 4 -p tcp -e 1540 -c 0 -i 51 -a 0 -x {1.0 2.0 14 ------- null}
h -t 5.90117008 -s 1 -d 4 -p tcp -e 1540 -c 0 -i 51 -a 0 -x {1.0 2.0 -1 ------- null}
+ -t 6.10043056 -s 0 -d 4 -p tcp -e 1540 -c 0 -i 52 -a 0 -x {0.0 3.0 15 ------- null}
- -t 6.10043056 -s 0 -d 4 -p tcp -e 1540 -c 0 -i 52 -a 0 -x {0.0 3.0 15 ------- null}
h -t 6.10043056 -s 0 -d 4 -p tcp -e 1540 -c 0 -i 52 -a 0 -x {0.0 3.0 -1 ------- null}
+ -t 6.10043056 -s 0 -d 4 -p tcp -e 1540 -c 0 -i 53 -a 0 -x {0.0 3.0 16 ------- null}
+ -t 6.10055584 -s 0 -d 4 -p tcp -e 1540 -c 0 -i 54 -a 0 -x {0.0 3.0 17 ------- null}
+ -t 6.10055584 -s 0 -d 4 -p tcp -e 1540 -c 0 -i 55 -a 0 -x {0.0 3.0 18 ------- null}
- -t 6.10055584 -s 0 -d 4 -p tcp -e 1540 -c 0 -i 53 -a 0 -x {0.0 3.0 16 ------- null}
h -t 6.10055584 -s 0 -d 4 -p tcp -e 1540 -c 0 -i 53 -a 0 -x {0.0 3.0 -1 ------- null}
+ -t 6.10068112 -s 0 -d 4 -p tcp -e 1540 -c 0 -i 56 -a 0 -x {0.0 3.0 19 ------- null}
+ -t 6.10068112 -s 0 -d 4 -p tcp -e 1540 -c 0 -i 57 -a 0 -x {0.0 3.0 20 ------- null}
- -t 6.10068112 -s 0 -d 4 -p tcp -e 1540 -c 0 -i 54 -a 0 -x {0.0 3.0 17 ------- null}
h -t 6.10068112 -s 0 -d 4 -p tcp -e 1540 -c 0 -i 54 -a 0 -x {0.0 3.0 -1 ------- null}
+ -t 6.1008064 -s 0 -d 4 -p tcp -e 1540 -c 0 -i 58 -a 0 -x {0.0 3.0 21 ------- null}
+ -t 6.1008064 -s 0 -d 4 -p tcp -e 1540 -c 0 -i 59 -a 0 -x {0.0 3.0 22 ------- null}
- -t 6.1008064 -s 0 -d 4 -p tcp -e 1540 -c 0 -i 55 -a 0 -x {0.0 3.0 18 ------- null}
h -t 6.1008064 -s 0 -d 4 -p tcp -e 1540 -c 0 -i 55 -a 0 -x {0.0 3.0 -1 ------- null}
+ -t 6.10093168 -s 0 -d 4 -p tcp -e 1540 -c 0 -i 60 -a 0 -x {0.0 3.0 23 ------- null}
+ -t 6.10093168 -s 0 -d 4 -p tcp -e 1540 -c 0 -i 61 -a 0 -x {0.0 3.0 24 ------- null}
- -t 6.10093168 -s 0 -d 4 -p tcp -e 1540 -c 0 -i 56 -a 0 -x {0.0 3.0 19 ------- null}
h -t 6.10093168 -s 0 -d 4 -p tcp -e 1540 -c 0 -i 56 -a 0 -x {0.0 3.0 -1 ------- null}
+ -t 6.10105696 -s 0 -d 4 -p tcp -e 1540 -c 0 -i 62 -a 0 -x {0.0 3.0 25 ------- null}
+ -t 6.10105696 -s 0 -d 4 -p tcp -e 1540 -c 0 -i 63 -a 0 -x {0.0 3.0 26 ------- null}
- -t 6.10105696 -s 0 -d 4 -p tcp -e 1540 -c 0 -i 57 -a 0 -x {0.0 3.0 20 ------- null}
h -t 6.10105696 -s 0 -d 4 -p tcp -e 1540 -c 0 -i 57 -a 0 -x {0.0 3.0 -1 ------- null}
+ -t 6.10118224 -s 0 -d 4 -p tcp -e 1540 -c 0 -i 64 -a 0 -x {0.0 3.0 27 ------- null}
+ -t 6.10118224 -s 0 -d 4 -p tcp -e 1540 -c 0 -i 65 -a 0 -x {0.0 3.0 28 ------- null}
- -t 6.10118224 -s 0 -d 4 -p tcp -e 1540 -c 0 -i 58 -a 0 -x {0.0 3.0 21 ------- null}
h -t 6.10118224 -s 0 -d 4 -p tcp -e 1540 -c 0 -i 58 -a 0 -x {0.0 3.0 -1 ------- null}
+ -t 6.10130752 -s 0 -d 4 -p tcp -e 1540 -c 0 -i 66 -a 0 -x {0.0 3.0 29 ------- null}
+ -t 6.10130752 -s 0 -d 4 -p tcp -e 1540 -c 0 -i 67 -a 0 -x {0.0 3.0 30 ------- null}
- -t 6.10130752 -s 0 -d 4 -p tcp -e 1540 -c 0 -i 59 -a 0 -x {0.0 3.0 22 ------- null}
h -t 6.10130752 -s 0 -d 4 -p tcp -e 1540 -c 0 -i 59 -a 0 -x {0.0 3.0 -1 ------- null}
- -t 6.1014328 -s 0 -d 4 -p tcp -e 1540 -c 0 -i 60 -a 0 -x {0.0 3.0 23 ------- null}
h -t 6.1014328 -s 0 -d 4 -p tcp -e 1540 -c 0 -i 60 -a 0 -x {0.0 3.0 -1 ------- null}
- -t 6.10155808 -s 0 -d 4 -p tcp -e 1540 -c 0 -i 61 -a 0 -x {0.0 3.0 24 ------- null}
h -t 6.10155808 -s 0 -d 4 -p tcp -e 1540 -c 0 -i 61 -a 0 -x {0.0 3.0 -1 ------- null}
- -t 6.10168336 -s 0 -d 4 -p tcp -e 1540 -c 0 -i 62 -a 0 -x {0.0 3.0 25 ------- null}
h -t 6.10168336 -s 0 -d 4 -p tcp -e 1540 -c 0 -i 62 -a 0 -x {0.0 3.0 -1 ------- null}
- -t 6.10180864 -s 0 -d 4 -p tcp -e 1540 -c 0 -i 63 -a 0 -x {0.0 3.0 26 ------- null}
h -t 6.10180864 -s 0 -d 4 -p tcp -e 1540 -c 0 -i 63 -a 0 -x {0.0 3.0 -1 ------- null}
- -t 6.10193392 -s 0 -d 4 -p tcp -e 1540 -c 0 -i 64 -a 0 -x {0.0 3.0 27 ------- null}
h -t 6.10193392 -s 0 -d 4 -p tcp -e 1540 -c 0 -i 64 -a 0 -x {0.0 3.0 -1 ------- null}
- -t 6.10205920000001 -s 0 -d 4 -p tcp -e 1540 -c 0 -i 65 -a 0 -x {0.0 3.0 28 ------- null}
h -t 6.10205920000001 -s 0 -d 4 -p tcp -e 1540 -c 0 -i 65 -a 0 -x {0.0 3.0 -1 ------- null}
- -t 6.10218448000001 -s 0 -d 4 -p tcp -e 1540 -c 0 -i 66 -a 0 -x {0.0 3.0 29 ------- null}
h -t 6.10218448000001 -s 0 -d 4 -p tcp -e 1540 -c 0 -i 66 -a 0 -x {0.0 3.0 -1 ------- null}
- -t 6.10230976000001 -s 0 -d 4 -p tcp -e 1540 -c 0 -i 67 -a 0 -x {0.0 3.0 30 ------- null}
h -t 6.10230976000001 -s 0 -d 4 -p tcp -e 1540 -c 0 -i 67 -a 0 -x {0.0 3.0 -1 ------- null}
r -t 6.20042144 -s 4 -d 2 -p tcp -e 1540 -c 0 -i 44 -a 0 -x {1.0 2.0 7 ------- null}
h -t 6.20042144 -s 2 -d 4 -p ack -e 40 -c 0 -i 68 -a 0 -x {2.0 1.0 7 ------- null}
r -t 6.20054672 -s 4 -d 2 -p tcp -e 1540 -c 0 -i 45 -a 0 -x {1.0 2.0 8 ------- null}
h -t 6.20054672 -s 2 -d 4 -p ack -e 40 -c 0 -i 69 -a 0 -x {2.0 1.0 8 ------- null}
r -t 6.200672 -s 4 -d 2 -p tcp -e 1540 -c 0 -i 46 -a 0 -x {1.0 2.0 9 ------- null}
h -t 6.200672 -s 2 -d 4 -p ack -e 40 -c 0 -i 70 -a 0 -x {2.0 1.0 9 ------- null}
r -t 6.20079728 -s 4 -d 2 -p tcp -e 1540 -c 0 -i 47 -a 0 -x {1.0 2.0 10 ------- null}
h -t 6.20079728 -s 2 -d 4 -p ack -e 40 -c 0 -i 71 -a 0 -x {2.0 1.0 10 ------- null}
r -t 6.20092256 -s 4 -d 2 -p tcp -e 1540 -c 0 -i 48 -a 0 -x {1.0 2.0 11 ------- null}
h -t 6.20092256 -s 2 -d 4 -p ack -e 40 -c 0 -i 72 -a 0 -x {2.0 1.0 11 ------- null}
r -t 6.20104784 -s 4 -d 2 -p tcp -e 1540 -c 0 -i 49 -a 0 -x {1.0 2.0 12 ------- null}
h -t 6.20104784 -s 2 -d 4 -p ack -e 40 -c 0 -i 73 -a 0 -x {2.0 1.0 12 ------- null}
r -t 6.20117312 -s 4 -d 2 -p tcp -e 1540 -c 0 -i 50 -a 0 -x {1.0 2.0 13 ------- null}
h -t 6.20117312 -s 2 -d 4 -p ack -e 40 -c 0 -i 74 -a 0 -x {2.0 1.0 13 ------- null}
r -t 6.2012984 -s 4 -d 2 -p tcp -e 1540 -c 0 -i 51 -a 0 -x {1.0 2.0 14 ------- null}
h -t 6.2012984 -s 2 -d 4 -p ack -e 40 -c 0 -i 75 -a 0 -x {2.0 1.0 14 ------- null}
r -t 6.40055888 -s 4 -d 3 -p tcp -e 1540 -c 0 -i 52 -a 0 -x {0.0 3.0 15 ------- null}
h -t 6.40055888 -s 3 -d 4 -p ack -e 40 -c 0 -i 76 -a 0 -x {3.0 0.0 15 ------- null}
r -t 6.40068416 -s 4 -d 3 -p tcp -e 1540 -c 0 -i 53 -a 0 -x {0.0 3.0 16 ------- null}
h -t 6.40068416 -s 3 -d 4 -p ack -e 40 -c 0 -i 77 -a 0 -x {3.0 0.0 16 ------- null}
r -t 6.40080944 -s 4 -d 3 -p tcp -e 1540 -c 0 -i 54 -a 0 -x {0.0 3.0 17 ------- null}
h -t 6.40080944 -s 3 -d 4 -p ack -e 40 -c 0 -i 78 -a 0 -x {3.0 0.0 17 ------- null}
r -t 6.40093472 -s 4 -d 3 -p tcp -e 1540 -c 0 -i 55 -a 0 -x {0.0 3.0 18 ------- null}
h -t 6.40093472 -s 3 -d 4 -p ack -e 40 -c 0 -i 79 -a 0 -x {3.0 0.0 18 ------- null}
r -t 6.40106 -s 4 -d 3 -p tcp -e 1540 -c 0 -i 56 -a 0 -x {0.0 3.0 19 ------- null}
h -t 6.40106 -s 3 -d 4 -p ack -e 40 -c 0 -i 80 -a 0 -x {3.0 0.0 19 ------- null}
r -t 6.40118528 -s 4 -d 3 -p tcp -e 1540 -c 0 -i 57 -a 0 -x {0.0 3.0 20 ------- null}
h -t 6.40118528 -s 3 -d 4 -p ack -e 40 -c 0 -i 81 -a 0 -x {3.0 0.0 20 ------- null}
r -t 6.40131056 -s 4 -d 3 -p tcp -e 1540 -c 0 -i 58 -a 0 -x {0.0 3.0 21 ------- null}
h -t 6.40131056 -s 3 -d 4 -p ack -e 40 -c 0 -i 82 -a 0 -x {3.0 0.0 21 ------- null}
r -t 6.40143584 -s 4 -d 3 -p tcp -e 1540 -c 0 -i 59 -a 0 -x {0.0 3.0 22 ------- null}
h -t 6.40143584 -s 3 -d 4 -p ack -e 40 -c 0 -i 83 -a 0 -x {3.0 0.0 22 ------- null}
r -t 6.40156112 -s 4 -d 3 -p tcp -e 1540 -c 0 -i 60 -a 0 -x {0.0 3.0 23 ------- null}
h -t 6.40156112 -s 3 -d 4 -p ack -e 40 -c 0 -i 84 -a 0 -x {3.0 0.0 23 ------- null}