h 1 0 4 tcp 40 ------- 0 0.0 3.0 0 0
+ 1.3 0 4 tcp 40 ------- 0 0.0 3.0 0 0
- 1.3 0 4 tcp 40 ------- 0 0.0 3.0 0 0
r 1.600009 4 3 tcp 40 ------- 0 0.0 3.0 0 0
h 1.600009 3 4 ack 40 ------- 0 3.0 0.0 0 1
+ 1.900009 3 4 ack 40 ------- 0 3.0 0.0 0 1
- 1.900009 3 4 ack 40 ------- 0 3.0 0.0 0 1
h 2 1 4 tcp 40 ------- 0 1.0 2.0 0 2
r 2.200018 4 0 ack 40 ------- 0 3.0 0.0 0 1
h 2.200018 0 4 tcp 1540 ------- 0 0.0 3.0 1 3
h 2.200018 0 4 tcp 1540 ------- 0 0.0 3.0 2 4
+ 2.3 1 4 tcp 40 ------- 0 1.0 2.0 0 2
- 2.3 1 4 tcp 40 ------- 0 1.0 2.0 0 2
+ 2.500018 0 4 tcp 1540 ------- 0 0.0 3.0 1 3
- 2.500018 0 4 tcp 1540 ------- 0 0.0 3.0 1 3
+ 2.500018 0 4 tcp 1540 ------- 0 0.0 3.0 2 4
- 2.500144 0 4 tcp 1540 ------- 0 0.0 3.0 2 4
r 2.600009 4 2 tcp 40 ------- 0 1.0 2.0 0 2
h 2.600009 2 4 ack 40 ------- 0 2.0 1.0 0 5
r 2.800147 4 3 tcp 1540 ------- 0 0.0 3.0 1 3
h 2.800147 3 4 ack 40 ------- 0 3.0 0.0 1 6
r 2.800272 4 3 tcp 1540 ------- 0 0.0 3.0 2 4
h 2.800272 3 4 ack 40 ------- 0 3.0 0.0 2 7
+ 2.900009 2 4 ack 40 ------- 0 2.0 1.0 0 5
- 2.900009 2 4 ack 40 ------- 0 2.0 1.0 0 5
+ 3.100147 3 4 ack 40 ------- 0 3.0 0.0 1 6
- 3.100147 3 4 ack 40 ------- 0 3.0 0.0 1 6
+ 3.100272 3 4 ack 40 ------- 0 3.0 0.0 2 7
- 3.100272 3 4 ack 40 ------- 0 3.0 0.0 2 7
r 3.200018 4 1 ack 40 ------- 0 2.0 1.0 0 5
h 3.200018 1 4 tcp 1540 ------- 0 1.0 2.0 1 8
h 3.200018 1 4 tcp 1540 ------- 0 1.0 2.0 2 9
r 3.400156 4 0 ack 40 ------- 0 3.0 0.0 1 6
h 3.400156 0 4 tcp 1540 ------- 0 0.0 3.0 3 10
h 3.400156 0 4 tcp 1540 ------- 0 0.0 3.0 4 11
r 3.400281 4 0 ack 40 ------- 0 3.0 0.0 2 7
h 3.400281 0 4 tcp 1540 ------- 0 0.0 3.0 5 12
h 3.400281 0 4 tcp 1540 ------- 0 0.0 3.0 6 13
+ 3.500018 1 4 tcp 1540 ------- 0 1.0 2.0 1 8
- 3.500018 1 4 tcp 1540 ------- 0 1.0 2.0 1 8
+ 3.500018 1 4 tcp 1540 ------- 0 1.0 2.0 2 9
- 3.500144 1 4 tcp 1540 ------- 0 1.0 2.0 2 9
+ 3.700156 0 4 tcp 1540 ------- 0 0.0 3.0 3 10
- 3.700156 0 4 tcp 1540 ------- 0 0.0 3.0 3 10
+ 3.700156 0 4 tcp 1540 ------- 0 0.0 3.0 4 11
+ 3.700281 0 4 tcp 1540 ------- 0 0.0 3.0 5 12
+ 3.700281 0 4 tcp 1540 ------- 0 0.0 3.0 6 13
- 3.700281 0 4 tcp 1540 ------- 0 0.0 3.0 4 11
- 3.700406 0 4 tcp 1540 ------- 0 0.0 3.0 5 12
- 3.700532 0 4 tcp 1540 ------- 0 0.0 3.0 6 13
r 3.800147 4 2 tcp 1540 ------- 0 1.0 2.0 1 8
h 3.800147 2 4 ack 40 ------- 0 2.0 1.0 1 14
r 3.800272 4 2 tcp 1540 ------- 0 1.0 2.0 2 9
h 3.800272 2 4 ack 40 ------- 0 2.0 1.0 2 15
r 4.000284 4 3 tcp 1540 ------- 0 0.0 3.0 3 10
h 4.000284 3 4 ack 40 ------- 0 3.0 0.0 3 16
r 4.000409 4 3 tcp 1540 ------- 0 0.0 3.0 4 11
h 4.000409 3 4 ack 40 ------- 0 3.0 0.0 4 17
r 4.000535 4 3 tcp 1540 ------- 0 0.0 3.0 5 12
h 4.000535 3 4 ack 40 ------- 0 3.0 0.0 5 18
r 4.00066 4 3 tcp 1540 ------- 0 0.0 3.0 6 13
h 4.00066 3 4 ack 40 ------- 0 3.0 0.0 6 19
+ 4.100147 2 4 ack 40 ------- 0 2.0 1.0 1 14
- 4.100147 2 4 ack 40 ------- 0 2.0 1.0 1 14
+ 4.100272 2 4 ack 40 ------- 0 2.0 1.0 2 15
- 4.100272 2 4 ack 40 ------- 0 2.0 1.0 2 15
+ 4.300284 3 4 ack 40 ------- 0 3.0 0.0 3 16
- 4.300284 3 4 ack 40 ------- 0 3.0 0.0 3 16
+ 4.300409 3 4 ack 40 ------- 0 3.0 0.0 4 17
- 4.300409 3 4 ack 40 ------- 0 3.0 0.0 4 17
+ 4.300535 3 4 ack 40 ------- 0 3.0 0.0 5 18
- 4.300535 3 4 ack 40 ------- 0 3.0 0.0 5 18
+ 4.30066 3 4 ack 40 ------- 0 3.0 0.0 6 19
- 4.30066 3 4 ack 40 ------- 0 3.0 0.0 6 19
r 4.400156 4 1 ack 40 ------- 0 2.0 1.0 1 14
h 4.400156 1 4 tcp 1540 ------- 0 1.0 2.0 3 20
h 4.400156 1 4 tcp 1540 ------- 0 1.0 2.0 4 21
r 4.400281 4 1 ack 40 ------- 0 2.0 1.0 2 15
h 4.400281 1 4 tcp 1540 ------- 0 1.0 2.0 5 22
h 4.400281 1 4 tcp 1540 ------- 0 1.0 2.0 6 23
r 4.600293 4 0 ack 40 ------- 0 3.0 0.0 3 16
h 4.600293 0 4 tcp 1540 ------- 0 0.0 3.0 7 24
h 4.600293 0 4 tcp 1540 ------- 0 0.0 3.0 8 25
r 4.600418 4 0 ack 40 ------- 0 3.0 0.0 4 17
h 4.600418 0 4 tcp 1540 ------- 0 0.0 3.0 9 26
h 4.600418 0 4 tcp 1540 ------- 0 0.0 3.0 10 27
r 4.600544 4 0 ack 40 ------- 0 3.0 0.0 5 18
h 4.600544 0 4 tcp 1540 ------- 0 0.0 3.0 11 28
h 4.600544 0 4 tcp 1540 ------- 0 0.0 3.0 12 29
r 4.600669 4 0 ack 40 ------- 0 3.0 0.0 6 19
h 4.600669 0 4 tcp 1540 ------- 0 0.0 3.0 13 30
h 4.600669 0 4 tcp 1540 ------- 0 0.0 3.0 14 31
+ 4.700156 1 4 tcp 1540 ------- 0 1.0 2.0 3 20
- 4.700156 1 4 tcp 1540 ------- 0 1.0 2.0 3 20
+ 4.700156 1 4 tcp 1540 ------- 0 1.0 2.0 4 21
+ 4.700281 1 4 tcp 1540 ------- 0 1.0 2.0 5 22
+ 4.700281 1 4 tcp 1540 ------- 0 1.0 2.0 6 23
- 4.700281 1 4 tcp 1540 ------- 0 1.0 2.0 4 21
- 4.700406 1 4 tcp 1540 ------- 0 1.0 2.0 5 22
- 4.700532 1 4 tcp 1540 ------- 0 1.0 2.0 6 23
+ 4.900293 0 4 tcp 1540 ------- 0 0.0 3.0 7 24
- 4.900293 0 4 tcp 1540 ------- 0 0.0 3.0 7 24
+ 4.900293 0 4 tcp 1540 ------- 0 0.0 3.0 8 25
+ 4.900418 0 4 tcp 1540 ------- 0 0.0 3.0 9 26
+ 4.900418 0 4 tcp 1540 ------- 0 0.0 3.0 10 27
- 4.900418 0 4 tcp 1540 ------- 0 0.0 3.0 8 25
+ 4.900544 0 4 tcp 1540 ------- 0 0.0 3.0 11 28
+ 4.900544 0 4 tcp 1540 ------- 0 0.0 3.0 12 29
- 4.900544 0 4 tcp 1540 ------- 0 0.0 3.0 9 26
+ 4.900669 0 4 tcp 1540 ------- 0 0.0 3.0 13 30
+ 4.900669 0 4 tcp 1540 ------- 0 0.0 3.0 14 31
- 4.900669 0 4 tcp 1540 ------- 0 0.0 3.0 10 27
- 4.900794 0 4 tcp 1540 ------- 0 0.0 3.0 11 28
- 4.90092 0 4 tcp 1540 ------- 0 0.0 3.0 12 29
- 4.901045 0 4 tcp 1540 ------- 0 0.0 3.0 13 30
- 4.90117 0 4 tcp 1540 ------- 0 0.0 3.0 14 31
r 5.000284 4 2 tcp 1540 ------- 0 1.0 2.0 3 20
h 5.000284 2 4 ack 40 ------- 0 2.0 1.0 3 32
r 5.000409 4 2 tcp 1540 ------- 0 1.0 2.0 4 21
h 5.000409 2 4 ack 40 ------- 0 2.0 1.0 4 33
r 5.000535 4 2 tcp 1540 ------- 0 1.0 2.0 5 22
h 5.000535 2 4 ack 40 ------- 0 2.0 1.0 5 34
r 5.00066 4 2 tcp 1540 ------- 0 1.0 2.0 6 23
h 5.00066 2 4 ack 40 ------- 0 2.0 1.0 6 35
r 5.200421 4 3 tcp 1540 ------- 0 0.0 3.0 7 24
h 5.200421 3 4 ack 40 ------- 0 3.0 0.0 7 36
r 5.200547 4 3 tcp 1540 ------- 0 0.0 3.0 8 25
h 5.200547 3 4 ack 40 ------- 0 3.0 0.0 8 37
r 5.200672 4 3 tcp 1540 ------- 0 0.0 3.0 9 26
h 5.200672 3 4 ack 40 ------- 0 3.0 0.0 9 38
r 5.200797 4 3 tcp 1540 ------- 0 0.0 3.0 10 27
h 5.200797 3 4 ack 40 ------- 0 3.0 0.0 10 39
r 5.200923 4 3 tcp 1540 ------- 0 0.0 3.0 11 28
h 5.200923 3 4 ack 40 ------- 0 3.0 0.0 11 40
r 5.201048 4 3 tcp 1540 ------- 0 0.0 3.0 12 29
h 5.201048 3 4 ack 40 ------- 0 3.0 0.0 12 41
r 5.201173 4 3 tcp 1540 ------- 0 0.0 3.0 13 30
h 5.201173 3 4 ack 40 ------- 0 3.0 0.0 13 42
r 5.201298 4 3 tcp 1540 ------- 0 0.0 3.0 14 31
h 5.201298 3 4 ack 40 ------- 0 3.0 0.0 14 43
+ 5.300284 2 4 ack 40 ------- 0 2.0 1.0 3 32
- 5.300284 2 4 ack 40 ------- 0 2.0 1.0 3 32
+ 5.300409 2 4 ack 40 ------- 0 2.0 1.0 4 33
- 5.300409 2 4 ack 40 ------- 0 2.0 1.0 4 33
+ 5.300535 2 4 ack 40 ------- 0 2.0 1.0 5 34
- 5.300535 2 4 ack 40 ------- 0 2.0 1.0 5 34
+ 5.30066 2 4 ack 40 ------- 0 2.0 1.0 6 35
- 5.30066 2 4 ack 40 ------- 0 2.0 1.0 6 35
+ 5.500421 3 4 ack 40 ------- 0 3.0 0.0 7 36
- 5.500421 3 4 ack 40 ------- 0 3.0 0.0 7 36
+ 5.500547 3 4 ack 40 ------- 0 3.0 0.0 8 37
- 5.500547 3 4 ack 40 ------- 0 3.0 0.0 8 37
+ 5.500672 3 4 ack 40 ------- 0 3.0 0.0 9 38
- 5.500672 3 4 ack 40 ------- 0 3.0 0.0 9 38
+ 5.500797 3 4 ack 40 ------- 0 3.0 0.0 10 39
- 5.500797 3 4 ack 40 ------- 0 3.0 0.0 10 39
+ 5.500923 3 4 ack 40 ------- 0 3.0 0.0 11 40
- 5.500923 3 4 ack 40 ------- 0 3.0 0.0 11 40
+ 5.501048 3 4 ack 40 ------- 0 3.0 0.0 12 41
- 5.501048 3 4 ack 40 ------- 0 3.0 0.0 12 41
+ 5.501173 3 4 ack 40 ------- 0 3.0 0.0 13 42
- 5.501173 3 4 ack 40 ------- 0 3.0 0.0 13 42
+ 5.501298 3 4 ack 40 ------- 0 3.0 0.0 14 43
- 5.501298 3 4 ack 40 ------- 0 3.0 0.0 14 43
r 5.600293 4 1 ack 40 ------- 0 2.0 1.0 3 32
h 5.600293 1 4 tcp 1540 ------- 0 1.0 2.0 7 44
h 5.600293 1 4 tcp 1540 ------- 0 1.0 2.0 8 45
r 5.600418 4 1 ack 40 ------- 0 2.0 1.0 4 33
h 5.600418 1 4 tcp 1540 ------- 0 1.0 2.0 9 46
h 5.600418 1 4 tcp 1540 ------- 0 1.0 2.0 10 47
r 5.600544 4 1 ack 40 ------- 0 2.0 1.0 5 34
h 5.600544 1 4 tcp 1540 ------- 0 1.0 2.0 11 48
h 5.600544 1 4 tcp 1540 ------- 0 1.0 2.0 12 49
r 5.600669 4 1 ack 40 ------- 0 2.0 1.0 6 35
h 5.600669 1 4 tcp 1540 ------- 0 1.0 2.0 13 50
h 5.600669 1 4 tcp 1540 ------- 0 1.0 2.0 14 51
r 5.800431 4 0 ack 40 ------- 0 3.0 0.0 7 36
h 5.800431 0 4 tcp 1540 ------- 0 0.0 3.0 15 52
h 5.800431 0 4 tcp 1540 ------- 0 0.0 3.0 16 53
r 5.800556 4 0 ack 40 ------- 0 3.0 0.0 8 37
h 5.800556 0 4 tcp 1540 ------- 0 0.0 3.0 17 54
h 5.800556 0 4 tcp 1540 ------- 0 0.0 3.0 18 55
r 5.800681 4 0 ack 40 ------- 0 3.0 0.0 9 38
h 5.800681 0 4 tcp 1540 ------- 0 0.0 3.0 19 56
h 5.800681 0 4 tcp 1540 ------- 0 0.0 3.0 20 57
r 5.800806 4 0 ack 40 ------- 0 3.0 0.0 10 39
h 5.800806 0 4 tcp 1540 ------- 0 0.0 3.0 21 58
h 5.800806 0 4 tcp 1540 ------- 0 0.0 3.0 22 59
r 5.800932 4 0 ack 40 ------- 0 3.0 0.0 11 40
h 5.800932 0 4 tcp 1540 ------- 0 0.0 3.0 23 60
h 5.800932 0 4 tcp 1540 ------- 0 0.0 3.0 24 61
r 5.801057 4 0 ack 40 ------- 0 3.0 0.0 12 41
h 5.801057 0 4 tcp 1540 ------- 0 0.0 3.0 25 62
h 5.801057 0 4 tcp 1540 ------- 0 0.0 3.0 26 63
r 5.801182 4 0 ack 40 ------- 0 3.0 0.0 13 42
h 5.801182 0 4 tcp 1540 ------- 0 0.0 3.0 27 64
h 5.801182 0 4 tcp 1540 ------- 0 0.0 3.0 28 65
r 5.801308 4 0 ack 40 ------- 0 3.0 0.0 14 43
h 5.801308 0 4 tcp 1540 ------- 0 0.0 3.0 29 66
h 5.801308 0 4 tcp 1540 ------- 0 0.0 3.0 30 67
+ 5.900293 1 4 tcp 1540 ------- 0 1.0 2.0 7 44
- 5.900293 1 4 tcp 1540 ------- 0 1.0 2.0 7 44
+ 5.900293 1 4 tcp 1540 ------- 0 1.0 2.0 8 45
+ 5.900418 1 4 tcp 1540 ------- 0 1.0 2.0 9 46
+ 5.900418 1 4 tcp 1540 ------- 0 1.0 2.0 10 47
- 5.900418 1 4 tcp 1540 ------- 0 1.0 2.0 8 45
+ 5.900544 1 4 tcp 1540 ------- 0 1.0 2.0 11 48
+ 5.900544 1 4 tcp 1540 ------- 0 1.0 2.0 12 49
- 5.900544 1 4 tcp 1540 ------- 0 1.0 2.0 9 46
+ 5.900669 1 4 tcp 1540 ------- 0 1.0 2.0 13 50
+ 5.900669 1 4 tcp 1540 ------- 0 1.0 2.0 14 51
- 5.900669 1 4 tcp 1540 ------- 0 1.0 2.0 10 47
- 5.900794 1 4 tcp 1540 ------- 0 1.0 2.0 11 48
- 5.90092 1 4 tcp 1540 ------- 0 1.0 2.0 12 49
- 5.901045 1 4 tcp 1540 ------- 0 1.0 2.0 13 50
- 5.90117 1 4 tcp 1540 ------- 0 1.0 2.0 14 51
+ 6.100431 0 4 tcp 1540 ------- 0 0.0 3.0 15 52
- 6.100431 0 4 tcp 1540 ------- 0 0.0 3.0 15 52
+ 6.100431 0 4 tcp 1540 ------- 0 0.0 3.0 16 53
+ 6.100556 0 4 tcp 1540 ------- 0 0.0 3.0 17 54
+ 6.100556 0 4 tcp 1540 ------- 0 0.0 3.0 18 55
- 6.100556 0 4 tcp 1540 ------- 0 0.0 3.0 16 53
+ 6.100681 0 4 tcp 1540 ------- 0 0.0 3.0 19 56
+ 6.100681 0 4 tcp 1540 ------- 0 0.0 3.0 20 57
- 6.100681 0 4 tcp 1540 ------- 0 0.0 3.0 17 54
+ 6.100806 0 4 tcp 1540 ------- 0 0.0 3.0 21 58
+ 6.100806 0 4 tcp 1540 ------- 0 0.0 3.0 22 59
- 6.100806 0 4 tcp 1540 ------- 0 0.0 3.0 18 55
+ 6.100932 0 4 tcp 1540 ------- 0 0.0 3.0 23 60
+ 6.100932 0 4 tcp 1540 ------- 0 0.0 3.0 24 61
- 6.100932 0 4 tcp 1540 ------- 0 0.0 3.0 19 56
+ 6.101057 0 4 tcp 1540 ------- 0 0.0 3.0 25 62
+ 6.101057 0 4 tcp 1540 ------- 0 0.0 3.0 26 63
- 6.101057 0 4 tcp 1540 ------- 0 0.0 3.0 20 57
+ 6.101182 0 4 tcp 1540 ------- 0 0.0 3.0 27 64
+ 6.101182 0 4 tcp 1540 ------- 0 0.0 3.0 28 65
- 6.101182 0 4 tcp 1540 ------- 0 0.0 3.0 21 58
+ 6.101308 0 4 tcp 1540 ------- 0 0.0 3.0 29 66
+ 6.101308 0 4 tcp 1540 ------- 0 0.0 3.0 30 67
- 6.101308 0 4 tcp 1540 ------- 0 0.0 3.0 22 59
- 6.101433 0 4 tcp 1540 ------- 0 0.0 3.0 23 60
- 6.101558 0 4 tcp 1540 ------- 0 0.0 3.0 24 61
- 6.101683 0 4 tcp 1540 ------- 0 0.0 3.0 25 62
- 6.101809 0 4 tcp 1540 ------- 0 0.0 3.0 26 63
- 6.101934 0 4 tcp 1540 ------- 0 0.0 3.0 27 64
- 6.102059 0 4 tcp 1540 ------- 0 0.0 3.0 28 65
- 6.102184 0 4 tcp 1540 ------- 0 0.0 3.0 29 66
- 6.10231 0 4 tcp 1540 ------- 0 0.0 3.0 30 67
r 6.200421 4 2 tcp 1540 ------- 0 1.0 2.0 7 44
h 6.200421 2 4 ack 40 ------- 0 2.0 1.0 7 68
r 6.200547 4 2 tcp 1540 ------- 0 1.0 2.0 8 45
h 6.200547 2 4 ack 40 ------- 0 2.0 1.0 8 69
r 6.200672 4 2 tcp 1540 ------- 0 1.0 2.0 9 46
h 6.200672 2 4 ack 40 ------- 0 2.0 1.0 9 70
r 6.200797 4 2 tcp 1540 ------- 0 1.0 2.0 10 47
h 6.200797 2 4 ack 40 ------- 0 2.0 1.0 10 71
r 6.200923 4 2 tcp 1540 ------- 0 1.0 2.0 11 48
h 6.200923 2 4 ack 40 ------- 0 2.0 1.0 11 72
r 6.201048 4 2 tcp 1540 ------- 0 1.0 2.0 12 49
h 6.201048 2 4 ack 40 ------- 0 2.0 1.0 12 73
r 6.201173 4 2 tcp 1540 ------- 0 1.0 2.0 13 50
h 6.201173 2 4 ack 40 ------- 0 2.0 1.0 13 74
r 6.201298 4 2 tcp 1540 ------- 0 1.0 2.0 14 51
h 6.201298 2 4 ack 40 ------- 0 2.0 1.0 14 75
r 6.400559 4 3 tcp 1540 ------- 0 0.0 3.0 15 52
h 6.400559 3 4 ack 40 ------- 0 3.0 0.0 15 76
r 6.400684 4 3 tcp 1540 ------- 0 0.0 3.0 16 53
h 6.400684 3 4 ack 40 ------- 0 3.0 0.0 16 77
r 6.400809 4 3 tcp 1540 ------- 0 0.0 3.0 17 54
h 6.400809 3 4 ack 40 ------- 0 3.0 0.0 17 78
r 6.400935 4 3 tcp 1540 ------- 0 0.0 3.0 18 55
h 6.400935 3 4 ack 40 ------- 0 3.0 0.0 18 79
r 6.40106 4 3 tcp 1540 ------- 0 0.0 3.0 19 56
h 6.40106 3 4 ack 40 ------- 0 3.0 0.0 19 80
r 6.401185 4 3 tcp 1540 ------- 0 0.0 3.0 20 57
h 6.401185 3 4 ack 40 ------- 0 3.0 0.0 20 81
r 6.401311 4 3 tcp 1540 ------- 0 0.0 3.0 21 58
h 6.401311 3 4 ack 40 ------- 0 3.0 0.0 21 82
r 6.401436 4 3 tcp 1540 ------- 0 0.0 3.0 22 59
h 6.401436 3 4 ack 40 ------- 0 3.0 0.0 22 83
r 6.401561 4 3 tcp 1540 ------- 0 0.0 3.0 23 60
h 6.401561 3 4 ack 40 ------- 0 3.0 0.0 23 84
r 6.401686 4 3 tcp 1540 ------- 0 0.0 3.0 24 61
h 6.401686 3 4 ack 40 ------- 0 3.0 0.0 24 85
r 6.401812 4 3 tcp 1540 ------- 0 0.0 3.0 25 62
h 6.401812 3 4 ack 40 ------- 0 3.0 0.0 25 86
r 6.401937 4 3 tcp 1540 ------- 0 0.0 3.0 26 63
h 6.401937 3 4 ack 40 ------- 0 3.0 0.0 26 87
r 6.402062 4 3 tcp 1540 ------- 0 0.0 3.0 27 64
h 6.402062 3 4 ack 40 ------- 0 3.0 0.0 27 88
r 6.402188 4 3 tcp 1540 ------- 0 0.0 3.0 28 65
h 6.402188 3 4 ack 40 ------- 0 3.0 0.0 28 89
r 6.402313 4 3 tcp 1540 ------- 0 0.0 3.0 29 66
h 6.402313 3 4 ack 40 ------- 0 3.0 0.0 29 90
r 6.402438 4 3 tcp 1540 ------- 0 0.0 3.0 30 67
h 6.402438 3 4 ack 40 ------- 0 3.0 0.0 30 91
+ 6.500421 2 4 ack 40 ------- 0 2.0 1.0 7 68
- 6.500421 2 4 ack 40 ------- 0 2.0 1.0 7 68
+ 6.500547 2 4 ack 40 ------- 0 2.0 1.0 8 69
- 6.500547 2 4 ack 40 ------- 0 2.0 1.0 8 69
+ 6.500672 2 4 ack 40 ------- 0 2.0 1.0 9 70
- 6.500672 2 4 ack 40 ------- 0 2.0 1.0 9 70
+ 6.500797 2 4 ack 40 ------- 0 2.0 1.0 10 71
- 6.500797 2 4 ack 40 ------- 0 2.0 1.0 10 71
+ 6.500923 2 4 ack 40 ------- 0 2.0 1.0 11 72
- 6.500923 2 4 ack 40 ------- 0 2.0 1.0 11 72
+ 6.501048 2 4 ack 40 ------- 0 2.0 1.0 12 73
- 6.501048 2 4 ack 40 ------- 0 2.0 1.0 12 73
+ 6.501173 2 4 ack 40 ------- 0 2.0 1.0 13 74
- 6.501173 2 4 ack 40 ------- 0 2.0 1.0 13 74
+ 6.501298 2 4 ack 40 ------- 0 2.0 1.0 14 75
- 6.501298 2 4 ack 40 ------- 0 2.0 1.0 14 75
+ 6.700559 3 4 ack 40 ------- 0 3.0 0.0 15 76
- 6.700559 3 4 ack 40 ------- 0 3.0 0.0 15 76
+ 6.700684 3 4 ack 40 ------- 0 3.0 0.0 16 77
- 6.700684 3 4 ack 40 ------- 0 3.0 0.0 16 77
+ 6.700809 3 4 ack 40 ------- 0 3.0 0.0 17 78
- 6.700809 3 4 ack 40 ------- 0 3.0 0.0 17 78
+ 6.700935 3 4 ack 40 ------- 0 3.0 0.0 18 79
- 6.700935 3 4 ack 40 ------- 0 3.0 0.0 18 79
+ 6.70106 3 4 ack 40 ------- 0 3.0 0.0 19 80
- 6.70106 3 4 ack 40 ------- 0 3.0 0.0 19 80
+ 6.701185 3 4 ack 40 ------- 0 3.0 0.0 20 81
- 6.701185 3 4 ack 40 ------- 0 3.0 0.0 20 81
+ 6.701311 3 4 ack 40 ------- 0 3.0 0.0 21 82
- 6.701311 3 4 ack 40 ------- 0 3.0 0.0 21 82
+ 6.701436 3 4 ack 40 ------- 0 3.0 0.0 22 83
- 6.701436 3 4 ack 40 ------- 0 3.0 0.0 22 83
+ 6.701561 3 4 ack 40 ------- 0 3.0 0.0 23 84
- 6.701561 3 4 ack 40 ------- 0 3.0 0.0 23 84
+ 6.701686 3 4 ack 40 ------- 0 3.0 0.0 24 85
- 6.701686 3 4 ack 40 ------- 0 3.0 0.0 24 85
+ 6.701812 3 4 ack 40 ------- 0 3.0 0.0 25 86
- 6.701812 3 4 ack 40 ------- 0 3.0 0.0 25 86
+ 6.701937 3 4 ack 40 ------- 0 3.0 0.0 26 87
- 6.701937 3 4 ack 40 ------- 0 3.0 0.0 26 87
+ 6.702062 3 4 ack 40 ------- 0 3.0 0.0 27 88
- 6.702062 3 4 ack 40 ------- 0 3.0 0.0 27 88
+ 6.702188 3 4 ack 40 ------- 0 3.0 0.0 28 89
- 6.702188 3 4 ack 40 ------- 0 3.0 0.0 28 89
+ 6.702313 3 4 ack 40 ------- 0 3.0 0.0 29 90
- 6.702313 3 4 ack 40 ------- 0 3.0 0.0 29 90
+ 6.702438 3 4 ack 40 ------- 0 3.0 0.0 30 91
- 6.702438 3 4 ack 40 ------- 0 3.0 0.0 30 91
r 6.800431 4 1 ack 40 ------- 0 2.0 1.0 7 68
h 6.800431 1 4 tcp 1540 ------- 0 1.0 2.0 15 92
h 6.800431 1 4 tcp 1540 ------- 0 1.0 2.0 16 93
r 6.800556 4 1 ack 40 ------- 0 2.0 1.0 8 69
h 6.800556 1 4 tcp 1540 ------- 0 1.0 2.0 17 94
h 6.800556 1 4 tcp 1540 ------- 0 1.0 2.0 18 95
r 6.800681 4 1 ack 40 ------- 0 2.0 1.0 9 70
h 6.800681 1 4 tcp 1540 ------- 0 1.0 2.0 19 96
h 6.800681 1 4 tcp 1540 ------- 0 1.0 2.0 20 97
r 6.800806 4 1 ack 40 ------- 0 2.0 1.0 10 71
h 6.800806 1 4 tcp 1540 ------- 0 1.0 2.0 21 98
h 6.800806 1 4 tcp 1540 ------- 0 1.0 2.0 22 99
r 6.800932 4 1 ack 40 ------- 0 2.0 1.0 11 72
h 6.800932 1 4 tcp 1540 ------- 0 1.0 2.0 23 100
h 6.800932 1 4 tcp 1540 ------- 0 1.0 2.0 24 101
r 6.801057 4 1 ack 40 ------- 0 2.0 1.0 12 73
h 6.801057 1 4 tcp 1540 ------- 0 1.0 2.0 25 102
h 6.801057 1 4 tcp 1540 ------- 0 1.0 2.0 26 103
r 6.801182 4 1 ack 40 ------- 0 2.0 1.0 13 74
h 6.801182 1 4 tcp 1540 ------- 0 1.0 2.0 27 104
h 6.801182 1 4 tcp 1540 ------- 0 1.0 2.0 28 105
r 6.801308 4 1 ack 40 ------- 0 2.0 1.0 14 75
h 6.801308 1 4 tcp 1540 ------- 0 1.0 2.0 29 106
h 6.801308 1 4 tcp 1540 ------- 0 1.0 2.0 30 107
r 7.000568 4 0 ack 40 ------- 0 3.0 0.0 15 76
h 7.000568 0 4 tcp 1540 ------- 0 0.0 3.0 31 108
h 7.000568 0 4 tcp 1540 ------- 0 0.0 3.0 32 109
r 7.000693 4 0 ack 40 ------- 0 3.0 0.0 16 77
h 7.000693 0 4 tcp 1540 ------- 0 0.0 3.0 33 110
h 7.000693 0 4 tcp 1540 ------- 0 0.0 3.0 34 111
r 7.000819 4 0 ack 40 ------- 0 3.0 0.0 17 78
h 7.000819 0 4 tcp 1540 ------- 0 0.0 3.0 35 112
h 7.000819 0 4 tcp 1540 ------- 0 0.0 3.0 36 113
r 7.000944 4 0 ack 40 ------- 0 3.0 0.0 18 79
h 7.000944 0 4 tcp 1540 ------- 0 0.0 3.0 37 114
h 7.000944 0 4 tcp 1540 ------- 0 0.0 3.0 38 115
r 7.001069 4 0 ack 40 ------- 0 3.0 0.0 19 80
h 7.001069 0 4 tcp 1540 ------- 0 0.0 3.0 39 116
r 7.001194 4 0 ack 40 ------- 0 3.0 0.0 20 81
h 7.001194 0 4 tcp 1540 ------- 0 0.0 3.0 40 117
r 7.00132 4 0 ack 40 ------- 0 3.0 0.0 21 82
h 7.00132 0 4 tcp 1540 ------- 0 0.0 3.0 41 118
r 7.001445 4 0 ack 40 ------- 0 3.0 0.0 22 83
h 7.001445 0 4 tcp 1540 ------- 0 0.0 3.0 42 119
r 7.00157 4 0 ack 40 ------- 0 3.0 0.0 23 84
h 7.00157 0 4 tcp 1540 ------- 0 0.0 3.0 43 120
r 7.001696 4 0 ack 40 ------- 0 3.0 0.0 24 85
h 7.001696 0 4 tcp 1540 ------- 0 0.0 3.0 44 121
r 7.001821 4 0 ack 40 ------- 0 3.0 0.0 25 86
h 7.001821 0 4 tcp 1540 ------- 0 0.0 3.0 45 122
r 7.001946 4 0 ack 40 ------- 0 3.0 0.0 26 87
h 7.001946 0 4 tcp 1540 ------- 0 0.0 3.0 46 123
r 7.002071 4 0 ack 40 ------- 0 3.0 0.0 27 88
h 7.002071 0 4 tcp 1540 ------- 0 0.0 3.0 47 124
r 7.002197 4 0 ack 40 ------- 0 3.0 0.0 28 89
h 7.002197 0 4 tcp 1540 ------- 0 0.0 3.0 48 125
r 7.002322 4 0 ack 40 ------- 0 3.0 0.0 29 90
h 7.002322 0 4 tcp 1540 ------- 0 0.0 3.0 49 126
r 7.002447 4 0 ack 40 ------- 0 3.0 0.0 30 91
h 7.002447 0 4 tcp 1540 ------- 0 0.0 3.0 50 127
+ 7.100431 1 4 tcp 1540 ------- 0 1.0 2.0 15 92
- 7.100431 1 4 tcp 1540 ------- 0 1.0 2.0 15 92
+ 7.100431 1 4 tcp 1540 ------- 0 1.0 2.0 16 93
+ 7.100556 1 4 tcp 1540 ------- 0 1.0 2.0 17 94
+ 7.100556 1 4 tcp 1540 ------- 0 1.0 2.0 18 95
- 7.100556 1 4 tcp 1540 ------- 0 1.0 2.0 16 93
+ 7.100681 1 4 tcp 1540 ------- 0 1.0 2.0 19 96
+ 7.100681 1 4 tcp 1540 ------- 0 1.0 2.0 20 97
- 7.100681 1 4 tcp 1540 ------- 0 1.0 2.0 17 94
+ 7.100806 1 4 tcp 1540 ------- 0 1.0 2.0 21 98
+ 7.100806 1 4 tcp 1540 ------- 0 1.0 2.0 22 99
- 7.100806 1 4 tcp 1540 ------- 0 1.0 2.0 18 95
+ 7.100932 1 4 tcp 1540 ------- 0 1.0 2.0 23 100
+ 7.100932 1 4 tcp 1540 ------- 0 1.0 2.0 24 101
- 7.100932 1 4 tcp 1540 ------- 0 1.0 2.0 19 96
+ 7.101057 1 4 tcp 1540 ------- 0 1.0 2.0 25 102
+ 7.101057 1 4 tcp 1540 ------- 0 1.0 2.0 26 103
- 7.101057 1 4 tcp 1540 ------- 0 1.0 2.0 20 97
+ 7.101182 1 4 tcp 1540 ------- 0 1.0 2.0 27 104
+ 7.101182 1 4 tcp 1540 ------- 0 1.0 2.0 28 105
- 7.101182 1 4 tcp 1540 ------- 0 1.0 2.0 21 98
+ 7.101308 1 4 tcp 1540 ------- 0 1.0 2.0 29 106
+ 7.101308 1 4 tcp 1540 ------- 0 1.0 2.0 30 107
- 7.101308 1 4 tcp 1540 ------- 0 1.0 2.0 22 99
- 7.101433 1 4 tcp 1540 ------- 0 1.0 2.0 23 100
- 7.101558 1 4 tcp 1540 ------- 0 1.0 2.0 24 101
- 7.101683 1 4 tcp 1540 ------- 0 1.0 2.0 25 102
- 7.101809 1 4 tcp 1540 ------- 0 1.0 2.0 26 103
- 7.101934 1 4 tcp 1540 ------- 0 1.0 2.0 27 104
- 7.102059 1 4 tcp 1540 ------- 0 1.0 2.0 28 105
- 7.102184 1 4 tcp 1540 ------- 0 1.0 2.0 29 106
- 7.10231 1 4 tcp 1540 ------- 0 1.0 2.0 30 107
+ 7.300568 0 4 tcp 1540 ------- 0 0.0 3.0 31 108
- 7.300568 0 4 tcp 1540 ------- 0 0.0 3.0 31 108
+ 7.300568 0 4 tcp 1540 ------- 0 0.0 3.0 32 109
+ 7.300693 0 4 tcp 1540 ------- 0 0.0 3.0 33 110
+ 7.300693 0 4 tcp 1540 ------- 0 0.0 3.0 34 111
- 7.300693 0 4 tcp 1540 ------- 0 0.0 3.0 32 109
+ 7.300819 0 4 tcp 1540 ------- 0 0.0 3.0 35 112
+ 7.300819 0 4 tcp 1540 ------- 0 0.0 3.0 36 113
- 7.300819 0 4 tcp 1540 ------- 0 0.0 3.0 33 110
+ 7.300944 0 4 tcp 1540 ------- 0 0.0 3.0 37 114
+ 7.300944 0 4 tcp 1540 ------- 0 0.0 3.0 38 115
- 7.300944 0 4 tcp 1540 ------- 0 0.0 3.0 34 111
+ 7.301069 0 4 tcp 1540 ------- 0 0.0 3.0 39 116
- 7.301069 0 4 tcp 1540 ------- 0 0.0 3.0 35 112
+ 7.301194 0 4 tcp 1540 ------- 0 0.0 3.0 40 117
- 7.301194 0 4 tcp 1540 ------- 0 0.0 3.0 36 113
+ 7.30132 0 4 tcp 1540 ------- 0 0.0 3.0 41 118
- 7.30132 0 4 tcp 1540 ------- 0 0.0 3.0 37 114
+ 7.301445 0 4 tcp 1540 ------- 0 0.0 3.0 42 119
- 7.301445 0 4 tcp 1540 ------- 0 0.0 3.0 38 115
+ 7.30157 0 4 tcp 1540 ------- 0 0.0 3.0 43 120
- 7.30157 0 4 tcp 1540 ------- 0 0.0 3.0 39 116
+ 7.301696 0 4 tcp 1540 ------- 0 0.0 3.0 44 121
- 7.301696 0 4 tcp 1540 ------- 0 0.0 3.0 40 117
+ 7.301821 0 4 tcp 1540 ------- 0 0.0 3.0 45 122
- 7.301821 0 4 tcp 1540 ------- 0 0.0 3.0 41 118
+ 7.301946 0 4 tcp 1540 ------- 0 0.0 3.0 46 123
- 7.301946 0 4 tcp 1540 ------- 0 0.0 3.0 42 119
+ 7.302071 0 4 tcp 1540 ------- 0 0.0 3.0 47 124
- 7.302071 0 4 tcp 1540 ------- 0 0.0 3.0 43 120
+ 7.302197 0 4 tcp 1540 ------- 0 0.0 3.0 48 125
- 7.302197 0 4 tcp 1540 ------- 0 0.0 3.0 44 121
+ 7.302322 0 4 tcp 1540 ------- 0 0.0 3.0 49 126
- 7.302322 0 4 tcp 1540 ------- 0 0.0 3.0 45 122
+ 7.302447 0 4 tcp 1540 ------- 0 0.0 3.0 50 127
- 7.302447 0 4 tcp 1540 ------- 0 0.0 3.0 46 123
- 7.302572 0 4 tcp 1540 ------- 0 0.0 3.0 47 124
- 7.302698 0 4 tcp 1540 ------- 0 0.0 3.0 48 125
- 7.302823 0 4 tcp 1540 ------- 0 0.0 3.0 49 126
- 7.302948 0 4 tcp 1540 ------- 0 0.0 3.0 50 127
r 7.400559 4 2 tcp 1540 ------- 0 1.0 2.0 15 92
h 7.400559 2 4 ack 40 ------- 0 2.0 1.0 15 128
r 7.400684 4 2 tcp 1540 ------- 0 1.0 2.0 16 93
h 7.400684 2 4 ack 40 ------- 0 2.0 1.0 16 129
r 7.400809 4 2 tcp 1540 ------- 0 1.0 2.0 17 94
h 7.400809 2 4 ack 40 ------- 0 2.0 1.0 17 130
r 7.400935 4 2 tcp 1540 ------- 0 1.0 2.0 18 95
h 7.400935 2 4 ack 40 ------- 0 2.0 1.0 18 131
r 7.40106 4 2 tcp 1540 ------- 0 1.0 2.0 19 96
h 7.40106 2 4 ack 40 ------- 0 2.0 1.0 19 132
r 7.401185 4 2 tcp 1540 ------- 0 1.0 2.0 20 97
h 7.401185 2 4 ack 40 ------- 0 2.0 1.0 20 133
r 7.401311 4 2 tcp 1540 ------- 0 1.0 2.0 21 98
h 7.401311 2 4 ack 40 ------- 0 2.0 1.0 21 134
r 7.401436 4 2 tcp 1540 ------- 0 1.0 2.0 22 99
h 7.401436 2 4 ack 40 ------- 0 2.0 1.0 22 135
r 7.401561 4 2 tcp 1540 ------- 0 1.0 2.0 23 100
h 7.401561 2 4 ack 40 ------- 0 2.0 1.0 23 136
r 7.401686 4 2 tcp 1540 ------- 0 1.0 2.0 24 101
h 7.401686 2 4 ack 40 ------- 0 2.0 1.0 24 137
r 7.401812 4 2 tcp 1540 ------- 0 1.0 2.0 25 102
h 7.401812 2 4 ack 40 ------- 0 2.0 1.0 25 138
r 7.401937 4 2 tcp 1540 ------- 0 1.0 2.0 26 103
h 7.401937 2 4 ack 40 ------- 0 2.0 1.0 26 139
r 7.402062 4 2 tcp 1540 ------- 0 1.0 2.0 27 104
h 7.402062 2 4 ack 40 ------- 0 2.0 1.0 27 140
r 7.402188 4 2 tcp 1540 ------- 0 1.0 2.0 28 105
h 7.402188 2 4 ack 40 ------- 0 2.0 1.0 28 141
r 7.402313 4 2 tcp 1540 ------- 0 1.0 2.0 29 106
h 7.402313 2 4 ack 40 ------- 0 2.0 1.0 29 142
r 7.402438 4 2 tcp 1540 ------- 0 1.0 2.0 30 107
h 7.402438 2 4 ack 40 ------- 0 2.0 1.0 30 143
r 7.600696 4 3 tcp 1540 ------- 0 0.0 3.0 31 108
h 7.600696 3 4 ack 40 ------- 0 3.0 0.0 31 144
r 7.600822 4 3 tcp 1540 ------- 0 0.0 3.0 32 109
h 7.600822 3 4 ack 40 ------- 0 3.0 0.0 32 145
r 7.600947 4 3 tcp 1540 ------- 0 0.0 3.0 33 110
h 7.600947 3 4 ack 40 ------- 0 3.0 0.0 33 146
r 7.601072 4 3 tcp 1540 ------- 0 0.0 3.0 34 111
h 7.601072 3 4 ack 40 ------- 0 3.0 0.0 34 147
r 7.601197 4 3 tcp 1540 ------- 0 0.0 3.0 35 112
h 7.601197 3 4 ack 40 ------- 0 3.0 0.0 35 148
r 7.601323 4 3 tcp 1540 ------- 0 0.0 3.0 36 113
h 7.601323 3 4 ack 40 ------- 0 3.0 0.0 36 149
r 7.601448 4 3 tcp 1540 ------- 0 0.0 3.0 37 114
h 7.601448 3 4 ack 40 ------- 0 3.0 0.0 37 150
r 7.601573 4 3 tcp 1540 ------- 0 0.0 3.0 38 115
h 7.601573 3 4 ack 40 ------- 0 3.0 0.0 38 151
r 7.601699 4 3 tcp 1540 ------- 0 0.0 3.0 39 116
h 7.601699 3 4 ack 40 ------- 0 3.0 0.0 39 152
r 7.601824 4 3 tcp 1540 ------- 0 0.0 3.0 40 117
h 7.601824 3 4 ack 40 ------- 0 3.0 0.0 40 153
r 7.601949 4 3 tcp 1540 ------- 0 0.0 3.0 41 118
h 7.601949 3 4 ack 40 ------- 0 3.0 0.0 41 154
r 7.602074 4 3 tcp 1540 ------- 0 0.0 3.0 42 119
h 7.602074 3 4 ack 40 ------- 0 3.0 0.0 42 155
r 7.6022 4 3 tcp 1540 ------- 0 0.0 3.0 43 120
h 7.6022 3 4 ack 40 ------- 0 3.0 0.0 43 156
r 7.602325 4 3 tcp 1540 ------- 0 0.0 3.0 44 121
h 7.602325 3 4 ack 40 ------- 0 3.0 0.0 44 157
r 7.60245 4 3 tcp 1540 ------- 0 0.0 3.0 45 122
h 7.60245 3 4 ack 40 ------- 0 3.0 0.0 45 158
r 7.602576 4 3 tcp 1540 ------- 0 0.0 3.0 46 123
h 7.602576 3 4 ack 40 ------- 0 3.0 0.0 46 159
r 7.602701 4 3 tcp 1540 ------- 0 0.0 3.0 47 124
h 7.602701 3 4 ack 40 ------- 0 3.0 0.0 47 160
r 7.602826 4 3 tcp 1540 ------- 0 0.0 3.0 48 125
h 7.602826 3 4 ack 40 ------- 0 3.0 0.0 48 161
r 7.602951 4 3 tcp 1540 ------- 0 0.0 3.0 49 126
h 7.602951 3 4 ack 40 ------- 0 3.0 0.0 49 162
r 7.603077 4 3 tcp 1540 ------- 0 0.0 3.0 50 127
h 7.603077 3 4 ack 40 ------- 0 3.0 0.0 50 163
+ 7.700559 2 4 ack 40 ------- 0 2.0 1.0 15 128
- 7.700559 2 4 ack 40 ------- 0 2.0 1.0 15 128
+ 7.700684 2 4 ack 40 ------- 0 2.0 1.0 16 129
- 7.700684 2 4 ack 40 ------- 0 2.0 1.0 16 129
+ 7.700809 2 4 ack 40 ------- 0 2.0 1.0 17 130
- 7.700809 2 4 ack 40 ------- 0 2.0 1.0 17 130
+ 7.700935 2 4 ack 40 ------- 0 2.0 1.0 18 131
- 7.700935 2 4 ack 40 ------- 0 2.0 1.0 18 131
+ 7.70106 2 4 ack 40 ------- 0 2.0 1.0 19 132
- 7.70106 2 4 ack 40 ------- 0 2.0 1.0 19 132
+ 7.701185 2 4 ack 40 ------- 0 2.0 1.0 20 133
- 7.701185 2 4 ack 40 ------- 0 2.0 1.0 20 133
+ 7.701311 2 4 ack 40 ------- 0 2.0 1.0 21 134
- 7.701311 2 4 ack 40 ------- 0 2.0 1.0 21 134
+ 7.701436 2 4 ack 40 ------- 0 2.0 1.0 22 135
- 7.701436 2 4 ack 40 ------- 0 2.0 1.0 22 135
+ 7.701561 2 4 ack 40 ------- 0 2.0 1.0 23 136
- 7.701561 2 4 ack 40 ------- 0 2.0 1.0 23 136
+ 7.701686 2 4 ack 40 ------- 0 2.0 1.0 24 137
- 7.701686 2 4 ack 40 ------- 0 2.0 1.0 24 137
+ 7.701812 2 4 ack 40 ------- 0 2.0 1.0 25 138
- 7.701812 2 4 ack 40 ------- 0 2.0 1.0 25 138
+ 7.701937 2 4 ack 40 ------- 0 2.0 1.0 26 139
- 7.701937 2 4 ack 40 ------- 0 2.0 1.0 26 139
+ 7.702062 2 4 ack 40 ------- 0 2.0 1.0 27 140
- 7.702062 2 4 ack 40 ------- 0 2.0 1.0 27 140
+ 7.702188 2 4 ack 40 ------- 0 2.0 1.0 28 141
- 7.702188 2 4 ack 40 ------- 0 2.0 1.0 28 141
+ 7.702313 2 4 ack 40 ------- 0 2.0 1.0 29 142
- 7.702313 2 4 ack 40 ------- 0 2.0 1.0 29 142
+ 7.702438 2 4 ack 40 ------- 0 2.0 1.0 30 143
- 7.702438 2 4 ack 40 ------- 0 2.0 1.0 30 143
+ 7.900696 3 4 ack 40 ------- 0 3.0 0.0 31 144
- 7.900696 3 4 ack 40 ------- 0 3.0 0.0 31 144
+ 7.900822 3 4 ack 40 ------- 0 3.0 0.0 32 145
- 7.900822 3 4 ack 40 ------- 0 3.0 0.0 32 145
+ 7.900947 3 4 ack 40 ------- 0 3.0 0.0 33 146
- 7.900947 3 4 ack 40 ------- 0 3.0 0.0 33 146
+ 7.901072 3 4 ack 40 ------- 0 3.0 0.0 34 147
- 7.901072 3 4 ack 40 ------- 0 3.0 0.0 34 147
+ 7.901197 3 4 ack 40 ------- 0 3.0 0.0 35 148
- 7.901197 3 4 ack 40 ------- 0 3.0 0.0 35 148
+ 7.901323 3 4 ack 40 ------- 0 3.0 0.0 36 149
- 7.901323 3 4 ack 40 ------- 0 3.0 0.0 36 149
+ 7.901448 3 4 ack 40 ------- 0 3.0 0.0 37 150
- 7.901448 3 4 ack 40 ------- 0 3.0 0.0 37 150
+ 7.901573 3 4 ack 40 ------- 0 3.0 0.0 38 151
- 7.901573 3 4 ack 40 ------- 0 3.0 0.0 38 151
+ 7.901699 3 4 ack 40 ------- 0 3.0 0.0 39 152
- 7.901699 3 4 ack 40 ------- 0 3.0 0.0 39 152
+ 7.901824 3 4 ack 40 ------- 0 3.0 0.0 40 153
- 7.901824 3 4 ack 40 ------- 0 3.0 0.0 40 153
+ 7.901949 3 4 ack 40 ------- 0 3.0 0.0 41 154
- 7.901949 3 4 ack 40 ------- 0 3.0 0.0 41 154
+ 7.902074 3 4 ack 40 ------- 0 3.0 0.0 42 155
- 7.902074 3 4 ack 40 ------- 0 3.0 0.0 42 155
+ 7.9022 3 4 ack 40 ------- 0 3.0 0.0 43 156
- 7.9022 3 4 ack 40 ------- 0 3.0 0.0 43 156
+ 7.902325 3 4 ack 40 ------- 0 3.0 0.0 44 157
- 7.902325 3 4 ack 40 ------- 0 3.0 0.0 44 157
+ 7.90245 3 4 ack 40 ------- 0 3.0 0.0 45 158
- 7.90245 3 4 ack 40 ------- 0 3.0 0.0 45 158
+ 7.902576 3 4 ack 40 ------- 0 3.0 0.0 46 159
- 7.902576 3 4 ack 40 ------- 0 3.0 0.0 46 159
+ 7.902701 3 4 ack 40 ------- 0 3.0 0.0 47 160
- 7.902701 3 4 ack 40 ------- 0 3.0 0.0 47 160
+ 7.902826 3 4 ack 40 ------- 0 3.0 0.0 48 161
- 7.902826 3 4 ack 40 ------- 0 3.0 0.0 48 161
+ 7.902951 3 4 ack 40 ------- 0 3.0 0.0 49 162
- 7.902951 3 4 ack 40 ------- 0 3.0 0.0 49 162
+ 7.903077 3 4 ack 40 ------- 0 3.0 0.0 50 163
- 7.903077 3 4 ack 40 ------- 0 3.0 0.0 50 163
r 8.000568 4 1 ack 40 ------- 0 2.0 1.0 15 128
h 8.000568 1 4 tcp 1540 ------- 0 1.0 2.0 31 164
h 8.000568 1 4 tcp 1540 ------- 0 1.0 2.0 32 165
r 8.000693 4 1 ack 40 ------- 0 2.0 1.0 16 129
h 8.000693 1 4 tcp 1540 ------- 0 1.0 2.0 33 166
h 8.000693 1 4 tcp 1540 ------- 0 1.0 2.0 34 167
r 8.000819 4 1 ack 40 ------- 0 2.0 1.0 17 130
h 8.000819 1 4 tcp 1540 ------- 0 1.0 2.0 35 168
h 8.000819 1 4 tcp 1540 ------- 0 1.0 2.0 36 169
r 8.000944 4 1 ack 40 ------- 0 2.0 1.0 18 131
h 8.000944 1 4 tcp 1540 ------- 0 1.0 2.0 37 170
h 8.000944 1 4 tcp 1540 ------- 0 1.0 2.0 38 171
r 8.001069 4 1 ack 40 ------- 0 2.0 1.0 19 132
h 8.001069 1 4 tcp 1540 ------- 0 1.0 2.0 39 172
r 8.001194 4 1 ack 40 ------- 0 2.0 1.0 20 133
h 8.001194 1 4 tcp 1540 ------- 0 1.0 2.0 40 173
r 8.00132 4 1 ack 40 ------- 0 2.0 1.0 21 134
h 8.00132 1 4 tcp 1540 ------- 0 1.0 2.0 41 174